<?xml version="1.0"?>
<VTKFile type="UnstructuredGrid" version="0.1" byte_order="LittleEndian" compressor="vtkZLibDataCompressor">
<UnstructuredGrid>
<Piece NumberOfPoints="218" NumberOfCells="192">
<PointData>
<DataArray type="Float64" Name="displacement" NumberOfComponents="3" format="ascii" >
0.0835233310438 -0.00895462563927  0.
0.0470520383747 -0.0718667661546  0.
0.0905072068925 -0.0130781812191  0.
0.090819831412 -0.0185842856227  0.
0.0882805824789 -0.0246435778845  0.
0.0840978760038 -0.0310777171563  0.
0.0787266198429 -0.0378175351499  0.
0.0725452251197 -0.0447735713648  0.
0.0659077219987 -0.0518208486646  0.
0.0591639479428 -0.0587954176432  0.
0.052687640267 -0.0655079233756  0.
0.0419479408309 -0.109637657079  0.
0.0470839177024 -0.0780366012499  0.
0.0467716742764 -0.0834759881279  0.
0.0463163708768 -0.0883104085044  0.
0.0457915216266 -0.0926161166397  0.
0.0452355182461 -0.0964459742582  0.
0.0446597420306 -0.0998236020802  0.
0.0440653524824 -0.102770473405  0.
0.0434476529376 -0.105327734633  0.
0.0427821329785 -0.107565341286  0.
0.0585960462574 -0.0817387704323  0.
0.0432644438166 -0.10837685961  0.
0.0447749813758 -0.106716867569  0.
0.0464049060828 -0.104707446737  0.
0.0481313846108 -0.102332106134  0.
0.0499364521269 -0.0995956629233  0.
0.0517771763215 -0.0965264491416  0.
0.0536040925239 -0.0931610737885  0.
0.0553728233296 -0.0895415845728  0.
0.0570465368168 -0.0857156870243  0.
0.0657877412856 -0.0785273345321  0.
0.0727240145215 -0.0746262068188  0.
0.0790600559473 -0.0698253469982  0.
0.0844505106561 -0.0639212450559  0.
0.0886239159215 -0.0568531174511  0.
0.0913985915154 -0.0487406515892  0.
0.0926410018953 -0.0398900517685  0.
0.092105678726 -0.0305342232586  0.
0.0893948757071 -0.0206240212454  0.
0.0922068821159 -0.0243268024252  0.
0.0924902480652 -0.0344863087995  0.
0.0914106671778 -0.0440029667291  0.
0.0892057153312 -0.0529119162821  0.
0.0859304323327 -0.0610295773712  0.
0.081581110944 -0.0680923642593  0.
0.0762865043267 -0.0740000118588  0.
0.0702536384754 -0.078791817861  0.
0.0637490744943 -0.082634460867  0.
0.0910821595171 -0.0293785852895  0.
0.0902773888825 -0.0393824145411  0.
0.0885163538413 -0.0487708149425  0.
0.0858777139716 -0.0575003475007  0.
0.0824289637385 -0.0654530591931  0.
0.0781378145127 -0.0723772416829  0.
0.0731001678216 -0.0781757408781  0.
0.0674831898504 -0.0828745845814  0.
0.0614998035327 -0.0866083111148  0.
0.087974486787 -0.0350745705926  0.
0.0866718285912 -0.0448000091294  0.
0.0845553876978 -0.0539011016882  0.
0.0817462361152 -0.0623235530086  0.
0.078321081996 -0.0699899706653  0.
0.0742465482506 -0.0766722199691  0.
0.0695901683516 -0.0822740248541  0.
0.0644828617237 -0.0868128329602  0.
0.0590929373676 -0.0903952836538  0.
0.0835068407433 -0.0411576533677  0.
0.0819919913706 -0.0505314609662  0.
0.0797640976783 -0.0592413235255  0.
0.0769716431895 -0.0672516584955  0.
0.0737273516175 -0.0745291998629  0.
0.0700039644785 -0.0808829460524  0.
0.0658369756237 -0.0862169132997  0.
0.0613217076824 -0.0905433728279  0.
0.0565853058423 -0.0939424299417  0.
0.0780269934494 -0.0474899920146  0.
0.0764965285822 -0.0564236078015  0.
0.0743478891113 -0.0646531141038  0.
0.0717363045583 -0.0721669428159  0.
0.0687929752073 -0.0789648539927  0.
0.0655250510793 -0.0849147006138  0.
0.061934169021 -0.0899246788195  0.
0.0580763953427 -0.0940006691116  0.
0.054038924427 -0.0971968558083  0.
0.0718636807288 -0.0539369598523  0.
0.070467182283 -0.0623321228842  0.
0.06855015471 -0.0699996602286  0.
0.0662584136918 -0.0769506744181  0.
0.0637155084325 -0.0832013299362  0.
0.060959936563 -0.0886805216045  0.
0.0579928649055 -0.0933208950389  0.
0.0548333082107 -0.0971193801308  0.
0.0515217681089 -0.10010682669  0.
0.0653462981473 -0.0603522660259  0.
0.0641989474392 -0.0681124975697  0.
0.0626266334555 -0.0751468925382  0.
0.0607578062228 -0.0814827147304  0.
0.0586991814464 -0.0871482292783  0.
0.0564953141342 -0.0921133267215  0.
0.0541587746297 -0.0963440714221  0.
0.0516933584356 -0.0998433050965  0.
0.0491012267581 -0.102626539046  0.
0.0588086469914 -0.0665809682518  0.
0.0579857869386 -0.0736275805567  0.
0.0568176103201 -0.0799728898627  0.
0.0554210904734 -0.0856554175528  0.
0.0538870191239 -0.0907151690151  0.
0.0522562185421 -0.0951500125139  0.
0.0505412943358 -0.0989531398979  0.
0.0487405740118 -0.102141064925  0.
0.0468301888053 -0.10473068002  0.
0.0526024040511 -0.0724878624892  0.
0.0521044548686 -0.0787696278082  0.
0.0513315091255 -0.0843817349114  0.
0.0503981553434 -0.0893856387793  0.
0.0493766523911 -0.0938307798897  0.
0.0482981559758 -0.0977335828372  0.
0.0471724886782 -0.101106176783  0.
0.0459953893427 -0.103979375796  0.
0.0447308618352 -0.106395419209  0.
0.0613240986981 -0.0735491542568  0.
0.0600196504591 -0.0776574835836  0.
0.0849583048094 -0.0157254746333  0.
0.0840927726584 -0.0126770637285  0.
0.0900763880914 -0.0240510656778  0.
0.0931846327356 -0.0316841850841  0.
0.0945404194145 -0.0390994869559  0.
0.0940122555457 -0.046168243304  0.
0.091617257981 -0.0526407085298  0.
0.0875429565052 -0.058246393054  0.
0.0821161437999 -0.0629524134666  0.
0.0756777177461 -0.0669027848172  0.
0.0685886777708 -0.0703513182565  0.
0.0672958857197 -0.0744854205582  0.
0.0743474648508 -0.070806437463  0.
0.0807586549102 -0.0664228148546  0.
0.0861520173567 -0.061105746944  0.
0.090223406227 -0.0547429229481  0.
0.0927914236822 -0.0474116016656  0.
0.0937155729283 -0.0394159453563  0.
0.0928490614492 -0.0310552121899  0.
0.0898995858639 -0.0223444017027  0.
0.0 0.0  0.
0.0 0.051383393757  0.
0.0 0.0227107530589  0.
0.0388416252283 0.0316068072385  0.
0.0651805817527 0.0115192490796  0.
0.0516023358257 -0.00739117427115  0.
0.0752748206222 -0.0101569518585  0.
0.0455078158079 0.0130598156918  0.
0.0706577153339 0.00033232924252  0.
0.0 0.0  0.
0.0 0.0  0.
0.0 0.0  0.
0.0 0.0  0.
0.0 0.0  0.
0.0 0.0  0.
0.0 0.0  0.
0.0 0.0  0.
0.0 0.0  0.
0.0 0.0  0.
0.0530732156347 -0.0626005285489  0.
0.0345291472662 -0.0400171636523  0.
0.0449200223133 -0.0358301974902  0.
0.0625400312596 -0.0583399168017  0.
0.0520531171814 -0.0342468034753  0.
0.0706209299223 -0.0551835593916  0.
0.0582045215362 -0.0327189331631  0.
0.0775848719172 -0.0520745952904  0.
0.0633748641503 -0.031028478013  0.
0.0834217618927 -0.0484208464119  0.
0.0673298910318 -0.0290322259183  0.
0.0877581994299 -0.0440297565518  0.
0.0697304765274 -0.0266340711677  0.
0.0901579233745 -0.0388413343014  0.
0.0702201733556 -0.0238130495983  0.
0.0903080851957 -0.0329991603163  0.
0.0683901477362 -0.0204309555379  0.
0.0880527376457 -0.0265642527523  0.
0.0635243830952 -0.0160925656584  0.
0.0831525492946 -0.019240193578  0.
0.0 -0.116924087136  0.
0.0 -0.0136679527305  0.
0.0 -0.0266148114332  0.
0.0 -0.0388405750342  0.
0.0 -0.0503487457718  0.
0.0 -0.0611329631351  0.
0.0 -0.0711856495888  0.
0.0 -0.0805064786311  0.
0.0 -0.0891094628356  0.
0.0 -0.0970277881425  0.
0.0 -0.104294941626  0.
0.0 -0.110922442448  0.
0.0253126099918 -0.110067021325  0.
0.0373555259587 -0.111047093454  0.
0.0335322695602 -0.0483863301519  0.
0.0325894884817 -0.0562437126366  0.
0.0317025468724 -0.0636136332851  0.
0.0308154092437 -0.0705473559468  0.
0.0299080719904 -0.0770534671773  0.
0.0289935896449 -0.0831160965552  0.
0.0281138692796 -0.0887115825594  0.
0.0273320226703 -0.0938240464317  0.
0.0267206354025 -0.0984579599513  0.
0.0261406264212 -0.102696696985  0.
0.0256553596476 -0.10654872099  0.
0.0515316349812 -0.0684943383807  0.
0.0501770042618 -0.0739394882406  0.
0.0488025890847 -0.0791257106092  0.
0.0473682473392 -0.0840567940731  0.
0.0458743999872 -0.0887057784475  0.
0.0443491192617 -0.0930346649363  0.
0.0428417371125 -0.0970038248465  0.
0.0414191799627 -0.100578236927  0.
0.0401487233834 -0.103736703762  0.
0.0389808286341 -0.106517407287  0.
0.0379215646373 -0.108950022186  0.
</DataArray>
<DataArray type="Float64" Name="stresses" NumberOfComponents="4" format="ascii" >
-140777.735347 -84747.1803077 -111619.961439 26677.6624923  
-71484.8364972 -73579.1551098 -71081.3558874 3403.32576579  
57117.1209451 75073.1610622 65798.5092503 38099.0167779  
18859.2773888 22906.5963488 20661.1137041 27558.3378114  
23827.8208467 19937.145513 21444.8335163 19805.0192117  
31004.3250087 22191.5573622 26065.9823617 12679.5918078  
27555.8133425 15921.5834506 21303.9244286 7626.73143264  
16391.0467699 3718.80371878 9853.82673947 4175.64773487  
932.477634894 -10893.203985 -4880.75591156 2049.95347979  
-14254.1417433 -23014.0603404 -18261.419021 1194.40851407  
-34410.391357 -38005.5202974 -35483.7967107 2495.43465274  
-53184.3840906 -84506.9487931 -67468.753113 -408.331026883  
-56950.2457798 -63171.7625503 -58859.7840818 2804.54690372  
-62632.7217652 -75790.4548802 -67827.3565562 793.33227849  
-69596.0359796 -85991.756902 -76238.0185119 -633.855405562  
-72028.208334 -89931.0157021 -79360.0197777 -1391.52553794  
-71038.9768625 -89617.4089496 -78721.629048 -1664.68335163  
-68393.6838064 -87402.745297 -76340.2502606 -1590.25407911  
-65715.5828037 -85200.4235951 -73948.8431354 -1138.32148195  
-63450.6307205 -83829.840776 -72167.4310333 -136.305533001  
-54495.3956644 -77484.9362979 -64670.3626615 1875.42320451  
-87274.9637228 -160077.965427 -121974.182376 473.127659643  
24778.6334447 -14801.3632725 4888.86238437 -2304.77495156  
16073.5411891 -32931.6324843 -8260.46473464 -3887.78825666  
11983.5319293 -44886.218116 -16160.6267419 -4465.61737108  
3183.65366736 -57239.2115759 -26580.7248907 -4291.3548806  
-9255.39574585 -72745.0263653 -40347.2350949 -3854.85900816  
-23127.4949836 -89356.5239066 -55383.4357931 -3187.57607758  
-38105.7166766 -106681.232678 -71326.5265042 -2345.82617072  
-53855.5369898 -124335.02035 -87823.3809495 -1391.68050895  
-69894.0774278 -141781.861113 -104361.383091 -415.408966419  
-115834.116655 -187857.674981 -149712.488351 790.270639256  
-118073.630656 -188127.685028 -150862.987983 2207.57125968  
-119633.821492 -185916.702933 -150367.342046 4607.86754178  
-122240.76243 -182636.032554 -149750.818787 8322.1596387  
-128530.578476 -179544.617537 -150982.816956 13587.9721385  
-143068.116452 -176448.38442 -156562.691211 18465.3664071  
-171084.668027 -182897.743613 -173424.210505 23403.4984951  
-209825.553603 -196570.55922 -199537.485338 28077.7135934  
-258333.6279 -221610.565268 -236796.124967 28506.9819684  
47046.9186507 59565.5726212 53023.1507228 32045.328557  
-23979.4915802 -30363.5989334 -26554.0852677 26430.3083701  
-50328.5442063 -75755.0906029 -61815.7531369 22805.467375  
-64069.1022602 -105941.283005 -83302.8753942 17256.8868655  
-73018.958843 -127348.816912 -98250.6615092 12052.9228848  
-78625.4573399 -140097.992725 -107478.914535 7277.04185267  
-84106.4422514 -150471.89199 -115449.058326 3826.41432749  
-89219.5456698 -158761.318704 -122166.23562 1497.46597351  
-92339.2057087 -163555.494559 -126129.293704 55.7761544542  
-7706.58281818 -12101.0572806 -9697.00981526 24617.0077999  
-36431.7637319 -57362.1133306 -45961.8131104 20512.8581616  
-51934.7102209 -87458.9035644 -68302.8707548 16491.9934568  
-55447.1687836 -103618.013015 -77946.5951778 12766.6722881  
-60527.6985479 -117554.250323 -87350.9748286 8818.41907698  
-64549.1395168 -126860.094868 -94063.7338014 5176.35788313  
-68248.600039 -134377.199553 -99710.3544337 2406.86759272  
-72477.9236991 -141144.148788 -105213.127846 463.753504676  
-75531.335828 -145518.555013 -108920.489344 -753.37792288  
-21524.3326088 -35296.3713207 -27842.1449255 17200.2170671  
-33364.1486613 -62212.021829 -46832.3235403 14737.7454995  
-40140.1785913 -81417.0957036 -59563.0644045 12012.1931859  
-42726.9958189 -94319.0378586 -67157.797913 9187.50266766  
-45551.5496445 -103811.035569 -73265.3536578 6161.89277297  
-49144.0216988 -111361.998715 -78864.1666265 3348.22189561  
-52213.8663892 -117429.168088 -83454.8215744 1149.71163655  
-56070.1393932 -123314.624869 -88315.3044889 -426.217319144  
-59277.6028067 -127553.928629 -92017.4723687 -1427.94178777  
-17804.8583114 -36520.4257319 -26619.3891812 11376.7662296  
-24827.8331411 -57849.382627 -40511.8357264 10049.0380173  
-28498.5010739 -72618.5688686 -49547.3642718 8178.00298307  
-30283.9525783 -83103.6539616 -55561.5712617 6057.41178089  
-31115.8797123 -89335.6214588 -59072.9192198 3801.10326901  
-34123.636116 -95409.3217905 -63618.6935718 1705.50705216  
-36735.8682006 -100359.858003 -67409.4234492 46.5111468885  
-40286.8074619 -105547.21952 -71757.6274956 -1154.87598376  
-43555.7394142 -109649.514812 -75411.2586931 -1937.2262437  
-11697.3444486 -32525.3425057 -21669.1166077 7033.47499857  
-15632.004465 -49862.471259 -32092.2931048 6303.3189079  
-17699.641326 -61898.4814404 -39003.0801555 5045.66588118  
-19341.2151903 -70877.8157509 -44207.3251612 3529.04510558  
-18487.1092472 -74946.5520929 -45808.8242794 1868.41944652  
-20079.8752787 -79718.303517 -48983.5346088 348.106738444  
-22152.1418003 -83515.3540259 -51917.777378 -845.149932124  
-25036.8589963 -87745.9870239 -55451.1237791 -1668.39393557  
-28304.9314779 -91755.9610201 -59048.3760135 -2227.21794951  
-4826.30675035 -25367.6473708 -14795.0375194 4017.35827024  
-7279.23681527 -40023.2645671 -23178.2256773 3594.9733099  
-8451.45291531 -50015.3414266 -28648.7292276 2779.85331357  
-9588.95186797 -57335.1617411 -32792.8156684 1770.23826902  
-7978.5542921 -60289.3066889 -33450.278544 608.764618447  
-7797.54778229 -63576.4911637 -34997.3936329 -516.456116784  
-8967.22635834 -67211.0187699 -37391.5714266 -1359.29438886  
-10835.2900707 -70581.1713765 -39993.9137265 -1875.18347751  
-13759.5224124 -74140.4398297 -43192.2416074 -2230.24324615  
1202.72461319 -16795.8486035 -7640.63075526 2228.39349711  
-1202.07852955 -29967.4987058 -15273.0928453 1940.80054081  
-1831.64669622 -38238.3722755 -19634.3092962 1381.66622079  
-2081.86277556 -43635.0222996 -22401.2736868 718.422044767  
-547.921996092 -45580.3775537 -22602.8667794 -16.8321319505  
783.933388189 -47135.6162117 -22712.3245835 -762.717798069  
1067.23591405 -49705.2663709 -23832.3871458 -1324.16207234  
699.795718384 -52671.8296031 -25474.3388663 -1603.76283393  
-1140.8000984 -56633.2523412 -28332.2051235 -1793.9271484  
3129.60725976 -10264.6473645 -3496.16965131 1704.89788545  
1257.9726073 -21505.2878264 -9921.18445735 1348.78019202  
2773.3599082 -26490.8998232 -11621.5945583 784.777005598  
3569.18212132 -29852.9759993 -12879.0590002 225.411309787  
5015.41584262 -31033.7329854 -12748.9753999 -277.981359931  
6521.67172177 -31541.5587051 -12259.7446218 -703.426849702  
7736.92781483 -32226.7559055 -12000.0157644 -927.206852766  
9498.15753077 -32631.3093893 -11335.2444107 -880.364518461  
10400.0356525 -34589.2128038 -11852.6968041 -763.108802453  
-7021.71562802 -14642.5893943 -10615.509461 2748.2352932  
2726.54989831 -13079.2242951 -5072.81045445 1794.91938935  
7630.6792751 -13423.9116799 -2838.68387834 833.270818756  
9442.9766459 -14653.736292 -2553.27222659 131.249567355  
10728.6783944 -15137.7668907 -2160.45336317 -325.132573019  
11831.8268959 -15298.2430972 -1698.54393859 -577.115538303  
13021.0761838 -15298.5450616 -1115.95975012 -548.9553542  
16368.4248641 -13553.1081449 1379.50519244 -126.508938941  
26795.0747449 -6302.90034633 10041.1654553 656.147773271  
-117711.604931 -190997.552742 -152244.500646 1458.49362017  
-97084.1525948 -170372.320769 -131898.195477 1140.67408342  
65266.6501337 124813.806226 93506.1922063 17291.5856327  
24852.0617735 88024.9571647 55597.4985373 18292.4573207  
-55056.3478119 -9230.15702759 -31839.0913237 21848.829809  
-80210.6755349 -53096.5892078 -65381.0428956 25259.2682787  
-95673.0046265 -93733.2602736 -92809.0889442 24470.4996015  
-103942.102095 -127497.709095 -113384.712147 21752.0370026  
-109025.284879 -154122.873803 -129057.582584 17280.4775217  
-116746.320705 -174546.142312 -143153.818699 12422.1789216  
-124514.93228 -189970.995739 -154834.34567 8133.70224176  
-134822.91558 -205159.678871 -167563.45555 4638.21305053  
-152916.30187 -225740.275305 -186715.532304 2374.83662029  
-133127.457645 -205811.636325 -167115.445899 1378.13747509  
-130825.966874 -201452.081202 -163740.655138 2555.92151383  
-129340.806146 -195912.970537 -160074.862625 4672.24882078  
-127860.255301 -188184.046717 -155193.869694 8001.92211  
-124856.177841 -174728.480558 -146768.220863 12779.9500082  
-124153.540568 -153136.705909 -135872.220773 16945.7206902  
-125060.10993 -130559.329367 -125253.525256 21069.7222103  
-137416.285333 -116898.256312 -124701.311732 24927.7042955  
-180985.474257 -137543.371682 -157021.135528 23692.7616641  
-340761.393827 -318799.056225 -323627.368263 16677.5376272  
-166578.407477 -111125.74796 -136103.277978 8211.97694723  
-361204.208645 -305791.680206 -327089.364207 8999.40762717  
-73878.348607 -12636.2486586 -42652.9227431 5172.74161542  
-52833.9467345 17078.1824264 -17820.4702649 8186.47066393  
-336167.589777 -277060.623338 -301406.795873 12637.4774529  
-156305.925726 -92617.3386109 -122673.695238 13575.0240928  
-202560.725343 -139177.835704 -168159.611797 7852.90345597  
-122901.516954 -53310.4932254 -86912.3794749 10581.4770518  
-699168.622137 -748342.559541 -710587.215887 12290.2079838  
-771729.293819 -800444.164573 -770262.006334 19395.6930767  
-734457.649086 -762206.269343 -733254.710417 22260.5439365  
-699380.343281 -726020.080164 -698465.283823 24594.8678562  
-660712.293168 -685191.593924 -659990.279596 25676.1049904  
-614620.509551 -637253.743949 -614128.118893 26590.453424  
-559131.794865 -580021.830038 -558907.28698 27241.9189053  
-493841.92974 -513106.454768 -493960.521718 27616.6875751  
-415766.26176 -433639.553936 -416412.563531 27833.7111876  
-315528.076196 -331969.870713 -317252.252971 26808.7091772  
-210657.337173 -283789.956551 -243852.051737 3290.66864741  
-367787.398249 -434890.002169 -395198.661372 6210.5742372  
-334782.904288 -392862.935461 -357356.748248 11053.054858  
-207173.455526 -275985.561758 -238057.22137 5011.56352971  
-354779.442236 -405207.164463 -372887.634942 15324.2450884  
-195638.788875 -259223.986805 -223880.618176 8343.01992342  
-358097.352484 -403017.244472 -373480.70049 18824.3567558  
-199867.542941 -257890.71186 -225105.666741 12681.6714825  
-360058.436849 -399072.794154 -372478.118486 21929.7139899  
-204276.876613 -254572.998296 -225402.631892 17397.8892193  
-363735.270454 -395451.176017 -372471.52601 24379.7284619  
-212056.113975 -250870.753041 -227060.72819 22101.2568022  
-370114.19796 -392198.966538 -374068.099531 25315.2458496  
-222634.189088 -243572.067916 -228505.984837 24814.6042452  
-381643.872421 -392621.696062 -379860.34418 25141.3650029  
-233311.13944 -232679.44366 -228327.818154 24915.7628164  
-402688.347571 -399631.676956 -393333.986456 23942.3295319  
-241174.669718 -216156.377484 -224071.965877 22847.5485808  
-454001.068542 -423510.65269 -430114.028428 20124.6490541  
-219591.074717 -170874.118161 -191810.947 18509.0982048  
13506.9340768 -34479.8449303 -10276.7263182 3294.85520527  
-527908.467843 -592851.767423 -551868.369454 8780.87403297  
-477314.838469 -541282.80401 -501308.287397 7866.36519605  
-425543.611177 -488517.878298 -449620.760873 7037.46295675  
-373667.597676 -435613.840529 -397851.431156 6279.24033818  
-321568.002057 -382449.305857 -345883.924566 5585.9280895  
-269228.645937 -329019.225314 -293718.828532 4972.17644758  
-216762.052741 -275462.325165 -241489.567941 4457.41298524  
-164403.795058 -222052.420145 -189454.193144 4058.76562953  
-111920.906198 -167616.422614 -136971.304228 3745.7775527  
-61462.2805488 -114009.862679 -85981.3501818 3480.93548025  
-9795.05621765 -59356.3928329 -33884.2100348 3332.14837503  
10894.7707226 -36022.4257989 -12312.5509874 107.215528064  
-13212.3164946 -54456.7638681 -33157.8493777 -1793.43440174  
-354019.021556 -422850.540814 -382789.632582 5443.27741786  
-314292.798715 -381615.743048 -342701.024375 4397.18707913  
-276556.335691 -342463.2917 -304667.050385 3405.28827649  
-239685.824756 -304273.615805 -267573.950569 2415.977016  
-203381.31743 -266599.594693 -231038.387777 1467.61976861  
-167520.198617 -229250.250022 -194908.946128 638.859689666  
-132139.839877 -192270.374204 -159233.478922 17.7622692246  
-97315.9972963 -155813.176274 -124128.430566 -272.000038375  
-63120.9062072 -119166.176203 -89320.5313644 -431.100192245  
-30920.2529831 -83077.6525475 -55858.97371 -468.244006941  
-978.368781198 -49610.2584912 -24788.4273635 -184.776246982  
-202876.498957 -275951.104616 -236155.800882 2868.27209078  
-180134.209862 -251192.323174 -212612.617376 1887.32225115  
-158585.014369 -228244.56093 -190599.627677 728.867268551  
-136911.130438 -205071.631851 -168427.119957 -554.715295466  
-115027.4774 -181432.253839 -145930.038933 -1850.45508947  
-93027.3378666 -157376.172184 -123175.748624 -3036.74494606  
-70929.190686 -132952.276428 -100203.368178 -3999.24453171  
-48571.267211 -108100.64299 -76922.3356396 -4637.11191001  
-27717.664061 -84388.6823293 -54966.2790735 -5001.71375175  
-8408.88695128 -59670.402001 -33358.8515866 -4875.75109681  
6205.10054911 -39027.4028213 -16082.9281134 -3388.98060322  
</DataArray>
<DataArray type="Float64" Name="equivalent_strain" NumberOfComponents="1" format="ascii" >
0.00182625628427  
0.0  
0.00151806702178  
0.000276544998962  
0.0  
0.0  
0.0  
0.0  
0.0  
0.0  
0.0  
0.0  
0.0  
0.0  
0.0  
0.0  
0.0  
0.0  
0.0  
0.0  
0.0  
0.00128637407566  
0.0  
0.0  
6.50912610926e-05  
0.000292411583048  
0.000534333012267  
0.00074891565729  
0.000933077828857  
0.00108501416053  
0.00120225655846  
0.0012377134047  
0.00108043756543  
0.000802878706989  
0.00044206169226  
0.000102851703932  
0.0  
0.0  
0.000165463797042  
0.000972291362654  
0.000757159846391  
0.000248993540438  
2.05769383877e-05  
1.32844780304e-05  
0.000167195510772  
0.000484919750493  
0.000792090540502  
0.00102969948325  
0.00116634947554  
7.50378929246e-05  
0.0  
0.0  
1.87012781067e-05  
0.000188332912558  
0.000481046243974  
0.000747766730986  
0.000949028289374  
0.00106185872425  
0.0  
0.0  
0.0  
1.71855985689e-05  
0.000170816699104  
0.000427848822404  
0.000656223624708  
0.000825824530704  
0.00091781193169  
0.0  
0.0  
0.0  
5.17520834529e-06  
0.000114533064799  
0.000322595241903  
0.000514389505544  
0.000657191580631  
0.000733854834246  
0.0  
0.0  
0.0  
0.0  
4.29063132933e-05  
0.000165503859519  
0.0003206722322  
0.000440881450717  
0.000509445064684  
0.0  
0.0  
0.0  
0.0  
0.0  
3.08868182589e-05  
9.84591477619e-05  
0.000178350111292  
0.000245967900586  
0.0  
0.0  
0.0  
0.0  
0.0  
0.0  
0.0  
9.81275177044e-06  
3.17318336064e-05  
0.0  
0.0  
0.0  
0.0  
0.0  
0.0  
0.0  
0.0  
0.0  
0.0  
0.0  
0.0  
0.0  
0.0  
0.0  
0.0  
0.0  
0.0  
0.001350822798  
0.00134520624136  
0.000942470330571  
0.00128346038125  
0.000457601527432  
5.08905240836e-05  
0.0  
3.958593382e-05  
0.00018092112098  
0.000500955262841  
0.000839746021202  
0.00111114197868  
0.00128833227654  
0.0012938460214  
0.00113057003168  
0.00082702140098  
0.000421820138613  
6.09327429881e-05  
0.0  
0.0  
3.94693635926e-05  
0.000580384273086  
0.000147231157491  
7.61074526961e-05  
0.000175260060014  
0.000444306960402  
0.00125112801931  
0.000511272513422  
0.000947594373489  
0.00064978582945  
0.00126529347562  
0.000497277597217  
0.0  
0.0  
3.7077284324e-05  
0.000124615072692  
0.000185327102378  
0.000205950755949  
0.000174470642371  
7.6530744602e-05  
0.0  
0.00131246946714  
0.000851611784011  
0.000341804726503  
0.00099799095456  
0.000172002217419  
0.000707285488552  
0.000175862270189  
0.000523212326621  
0.000181897427638  
0.000349905802999  
0.000174775812755  
0.00015936190295  
0.000171343891254  
4.32941352672e-05  
0.00013560471008  
0.0  
5.58368954268e-05  
0.0  
6.18331724485e-05  
0.000264385353055  
0.0  
0.000917831494412  
0.000783557790264  
0.000655910731203  
0.000532503565752  
0.000410145904837  
0.000288493367466  
0.000169594248392  
5.73278412411e-05  
0.0  
0.0  
0.0  
0.0  
0.0  
0.00107592536131  
0.000917812011174  
0.000777322004284  
0.000647159164737  
0.000516530280445  
0.000380384234488  
0.000238453800657  
9.48027312671e-05  
7.23726811184e-06  
0.0  
0.0  
0.00132750226179  
0.00115996995667  
0.00103421703581  
0.00090456094215  
0.000760519333849  
0.000598131296641  
0.000416513046154  
0.000218428138788  
4.72673755856e-05  
0.0  
0.0  
</DataArray>
</PointData>
<CellData>
</CellData>
<Points>
<DataArray type="Float64" Name="Points" NumberOfComponents="3" format="ascii">
45.0 30.0 0.0
35.0 40.0 0.0
44.0 31.0 0.0
43.0 32.0 0.0
42.0 33.0 0.0
41.0 34.0 0.0
40.0 35.0 0.0
39.0 36.0 0.0
38.0 37.0 0.0
37.0 38.0 0.0
36.0 39.0 0.0
25.0 40.0 0.0
34.0 40.0 0.0
33.0 40.0 0.0
32.0 40.0 0.0
31.0 40.0 0.0
30.0 40.0 0.0
29.0 40.0 0.0
28.0 40.0 0.0
27.0 40.0 0.0
26.0 40.0 0.0
25.0 30.0 0.0
25.0 39.0 0.0
25.0 38.0 0.0
25.0 37.0 0.0
25.0 36.0 0.0
25.0 35.0 0.0
25.0 34.0 0.0
25.0 33.0 0.0
25.0 32.0 0.0
25.0 31.0 0.0
27.0 30.0 0.0
29.0 30.0 0.0
31.0 30.0 0.0
33.0 30.0 0.0
35.0 30.0 0.0
37.0 30.0 0.0
39.0 30.0 0.0
41.0 30.0 0.0
43.0 30.0 0.0
42.1 31.0 0.0
40.2 31.0 0.0
38.3 31.0 0.0
36.4 31.0 0.0
34.5 31.0 0.0
32.6 31.0 0.0
30.7 31.0 0.0
28.8 31.0 0.0
26.9 31.0 0.0
41.2 32.0 0.0
39.4 32.0 0.0
37.6 32.0 0.0
35.8 32.0 0.0
34.0 32.0 0.0
32.2 32.0 0.0
30.4 32.0 0.0
28.6 32.0 0.0
26.8 32.0 0.0
40.3 33.0 0.0
38.6 33.0 0.0
36.9 33.0 0.0
35.2 33.0 0.0
33.5 33.0 0.0
31.8 33.0 0.0
30.1 33.0 0.0
28.4 33.0 0.0
26.7 33.0 0.0
39.4 34.0 0.0
37.8 34.0 0.0
36.2 34.0 0.0
34.6 34.0 0.0
33.0 34.0 0.0
31.4 34.0 0.0
29.8 34.0 0.0
28.2 34.0 0.0
26.6 34.0 0.0
38.5 35.0 0.0
37.0 35.0 0.0
35.5 35.0 0.0
34.0 35.0 0.0
32.5 35.0 0.0
31.0 35.0 0.0
29.5 35.0 0.0
28.0 35.0 0.0
26.5 35.0 0.0
37.6 36.0 0.0
36.2 36.0 0.0
34.8 36.0 0.0
33.4 36.0 0.0
32.0 36.0 0.0
30.6 36.0 0.0
29.2 36.0 0.0
27.8 36.0 0.0
26.4 36.0 0.0
36.7 37.0 0.0
35.4 37.0 0.0
34.1 37.0 0.0
32.8 37.0 0.0
31.5 37.0 0.0
30.2 37.0 0.0
28.9 37.0 0.0
27.6 37.0 0.0
26.3 37.0 0.0
35.8 38.0 0.0
34.6 38.0 0.0
33.4 38.0 0.0
32.2 38.0 0.0
31.0 38.0 0.0
29.8 38.0 0.0
28.6 38.0 0.0
27.4 38.0 0.0
26.2 38.0 0.0
34.9 39.0 0.0
33.8 39.0 0.0
32.7 39.0 0.0
31.6 39.0 0.0
30.5 39.0 0.0
29.4 39.0 0.0
28.3 39.0 0.0
27.2 39.0 0.0
26.1 39.0 0.0
25.0 28.0 0.0
25.0 29.0 0.0
45.0 28.0 0.0
45.0 29.0 0.0
43.0 28.0 0.0
41.0 28.0 0.0
39.0 28.0 0.0
37.0 28.0 0.0
35.0 28.0 0.0
33.0 28.0 0.0
31.0 28.0 0.0
29.0 28.0 0.0
27.0 28.0 0.0
27.0 29.0 0.0
29.0 29.0 0.0
31.0 29.0 0.0
33.0 29.0 0.0
35.0 29.0 0.0
37.0 29.0 0.0
39.0 29.0 0.0
41.0 29.0 0.0
43.0 29.0 0.0
75.0 0.0 0.0
75.0 30.0 0.0
75.0 15.0 0.0
57.8571428571 30.0 0.0
49.2857142857 30.0 0.0
57.8571428571 16.0 0.0
49.2857142857 24.0 0.0
57.8571428571 23.0 0.0
49.2857142857 27.0 0.0
0.0 0.0 0.0
7.5 0.0 0.0
15.0 0.0 0.0
22.5 0.0 0.0
30.0 0.0 0.0
37.5 0.0 0.0
45.0 0.0 0.0
52.5 0.0 0.0
60.0 0.0 0.0
67.5 0.0 0.0
21.4285714286 24.0 0.0
14.2857142857 16.0 0.0
18.6428571429 16.0 0.0
24.2142857143 24.0 0.0
23.0 16.0 0.0
27.0 24.0 0.0
27.3571428571 16.0 0.0
29.7857142857 24.0 0.0
31.7142857143 16.0 0.0
32.5714285714 24.0 0.0
36.0714285714 16.0 0.0
35.3571428571 24.0 0.0
40.4285714286 16.0 0.0
38.1428571429 24.0 0.0
44.7857142857 16.0 0.0
40.9285714286 24.0 0.0
49.1428571429 16.0 0.0
43.7142857143 24.0 0.0
53.5 16.0 0.0
46.5 24.0 0.0
0.0 40.0 0.0
0.0 3.33333333333 0.0
0.0 6.66666666667 0.0
0.0 10.0 0.0
0.0 13.3333333333 0.0
0.0 16.6666666667 0.0
0.0 20.0 0.0
0.0 23.3333333333 0.0
0.0 26.6666666667 0.0
0.0 30.0 0.0
0.0 33.3333333333 0.0
0.0 36.6666666667 0.0
14.2857142857 40.0 0.0
21.4285714286 40.0 0.0
14.2857142857 18.0 0.0
14.2857142857 20.0 0.0
14.2857142857 22.0 0.0
14.2857142857 24.0 0.0
14.2857142857 26.0 0.0
14.2857142857 28.0 0.0
14.2857142857 30.0 0.0
14.2857142857 32.0 0.0
14.2857142857 34.0 0.0
14.2857142857 36.0 0.0
14.2857142857 38.0 0.0
21.4285714286 25.3333333333 0.0
21.4285714286 26.6666666667 0.0
21.4285714286 28.0 0.0
21.4285714286 29.3333333333 0.0
21.4285714286 30.6666666667 0.0
21.4285714286 32.0 0.0
21.4285714286 33.3333333333 0.0
21.4285714286 34.6666666667 0.0
21.4285714286 36.0 0.0
21.4285714286 37.3333333333 0.0
21.4285714286 38.6666666667 0.0
</DataArray>
</Points>
<Cells>
<DataArray type="Int64" Name="connectivity" format="ascii">
0 2 40 39 
2 3 49 40 
3 4 58 49 
4 5 67 58 
5 6 76 67 
6 7 85 76 
7 8 94 85 
8 9 103 94 
9 10 112 103 
10 1 12 112 
39 40 41 38 
40 49 50 41 
49 58 59 50 
58 67 68 59 
67 76 77 68 
76 85 86 77 
85 94 95 86 
94 103 104 95 
103 112 113 104 
112 12 13 113 
38 41 42 37 
41 50 51 42 
50 59 60 51 
59 68 69 60 
68 77 78 69 
77 86 87 78 
86 95 96 87 
95 104 105 96 
104 113 114 105 
113 13 14 114 
37 42 43 36 
42 51 52 43 
51 60 61 52 
60 69 70 61 
69 78 79 70 
78 87 88 79 
87 96 97 88 
96 105 106 97 
105 114 115 106 
114 14 15 115 
36 43 44 35 
43 52 53 44 
52 61 62 53 
61 70 71 62 
70 79 80 71 
79 88 89 80 
88 97 98 89 
97 106 107 98 
106 115 116 107 
115 15 16 116 
35 44 45 34 
44 53 54 45 
53 62 63 54 
62 71 72 63 
71 80 81 72 
80 89 90 81 
89 98 99 90 
98 107 108 99 
107 116 117 108 
116 16 17 117 
34 45 46 33 
45 54 55 46 
54 63 64 55 
63 72 73 64 
72 81 82 73 
81 90 91 82 
90 99 100 91 
99 108 109 100 
108 117 118 109 
117 17 18 118 
33 46 47 32 
46 55 56 47 
55 64 65 56 
64 73 74 65 
73 82 83 74 
82 91 92 83 
91 100 101 92 
100 109 110 101 
109 118 119 110 
118 18 19 119 
32 47 48 31 
47 56 57 48 
56 65 66 57 
65 74 75 66 
74 83 84 75 
83 92 93 84 
92 101 102 93 
101 110 111 102 
110 119 120 111 
119 19 20 120 
31 48 30 21 
48 57 29 30 
57 66 28 29 
66 75 27 28 
75 84 26 27 
84 93 25 26 
93 102 24 25 
102 111 23 24 
111 120 22 23 
120 20 11 22 
121 133 134 122 
133 132 135 134 
132 131 136 135 
131 130 137 136 
130 129 138 137 
129 128 139 138 
128 127 140 139 
127 126 141 140 
126 125 142 141 
125 123 124 142 
122 134 31 21 
134 135 32 31 
135 136 33 32 
136 137 34 33 
137 138 35 34 
138 139 36 35 
139 140 37 36 
140 141 38 37 
141 142 39 38 
142 124 0 39 
143 145 150 148 
145 144 146 150 
148 150 151 149 
150 146 147 151 