<?xml version="1.0"?>
<VTKFile type="UnstructuredGrid" version="0.1" byte_order="LittleEndian" compressor="vtkZLibDataCompressor">
<UnstructuredGrid>
<Piece NumberOfPoints="3789" NumberOfCells="2920">
<PointData>
<DataArray type="Float64" Name="displacement" NumberOfComponents="3" format="ascii" >
0.000129833834449 -0.000237730512443 0.000155612969872 
-0.000210797465709 -0.000172427423928 1.1653407523e-05 
0.00777629267383 0.00195821851389 -0.00822150637422 
0.00732187306838 0.00176892470513 -0.00709345828243 
0.00656984179992 0.0015694962422 -0.00606528648796 
0.000121698370635 2.54295626707e-05 -0.000286867557356 
7.43477063502e-05 -8.67112408357e-05 -7.91686126749e-06 
4.10711717689e-05 -0.00014890201759 0.000142335585016 
4.85002203354e-06 -0.000168564638959 0.000190219603632 
-2.93408401009e-05 -0.000150155489048 0.000151407306286 
0.0081176940291 0.00154088867464 -0.00858711869825 
0.00804752502214 0.00149245770149 -0.00778625526823 
0.006858413674 0.00128053589136 -0.00612445410777 
0.000341741604141 -3.84383611933e-05 -0.000354587183087 
-5.69065945311e-05 -9.0656105244e-05 1.42690375502e-05 
0.00764264367179 0.00204844241861 -0.0103027444652 
0.00761435637073 0.00139953596635 -0.00695891710492 
0.00585894933469 0.00116166291239 -0.00533770596013 
0.000462516691982 -0.000286648889848 -2.17441413079e-05 
0.000235734105713 -0.000343087860036 0.000134321045455 
9.01318274053e-06 -0.000357154127658 0.000179921662971 
9.27604885619e-06 -0.000257637800625 0.000203750916422 
-0.000431575225499 -0.000282635458761 -7.25732740163e-06 
0.00752790002089 0.00263565152992 -0.00991595969532 
0.00739027902752 0.00238574448437 -0.00840890835085 
0.00693583392505 0.00212533398177 -0.00703210790589 
0.00620089043519 0.00185394246434 -0.00579650334903 
0.00523132657034 0.00155479573707 -0.00471875621346 
0.00496798999172 0.00119824632395 -0.0114166646724 
-0.00387605143555 0.00106174421349 -0.00396252748909 
0.00131163823901 0.000609400839617 -0.00208839334155 
0.00241398933938 0.00103607161953 -0.015322314814 
0.00468405001662 0.00104059802487 -0.00456874579099 
0.00343652605233 0.000921492022456 -0.00378728528176 
0.00224439299259 0.000814555959642 -0.00295953595369 
0.000487268382344 0.000409829014543 -0.00120656820405 
-9.34983932023e-05 2.16431069601e-05 -0.000255772337215 
-0.000191195405826 0.00018810500567 -0.000647644686643 
-0.000435421248762 0.000415563150997 -0.00116265856053 
-0.00585827232348 0.00108357110806 -0.00994599078837 
-0.00301007564085 -3.6078534049e-05 -0.00834074343982 
0.00398175397354 0.00119373341504 -0.00376951956788 
0.00736194063402 0.00260396556261 -0.01153691433 
-0.0075826737412 0.00225858411072 -0.0105960825039 
-0.00759795899624 0.00231809744725 -0.00925176325849 
-0.0073022683825 0.00216835588418 -0.00791911559054 
-0.00673055432411 0.00195635280177 -0.00666591556456 
-0.00592601082629 0.0017232727648 -0.00554566094418 
-0.00493141650669 0.00147072665669 -0.00454509530504 
-0.00372860551722 0.00112221688678 -0.00365781229907 
-0.00199106232577 0.000151399476279 -0.0226999915026 
-0.0015141530377 -0.000620116782919 -0.0269404846595 
-0.000698715795968 -0.00112056939696 -0.0293479165286 
0.00024991399942 -0.00122845386519 -0.029837780967 
0.00118675538461 -0.0010012281657 -0.0285334243614 
0.00196045149349 -0.000568539108691 -0.0258226263263 
0.0027962666243 7.68609599641e-05 -0.0220046795364 
0.00382704821718 0.0013039681706 -0.016709225082 
-0.000928785715826 0.000192004474887 -0.00125773846503 
-0.000617040425952 -0.000128638669629 -0.000379791314366 
0.000675109676187 -0.000129598897469 -0.000413687329746 
-0.000111862783025 0.000662520721332 -0.000687696084135 
1.06939482662e-05 0.000502010260725 -0.000530747690643 
7.92751571264e-05 0.00035530759038 -0.000399420541593 
0.000110727569926 0.000228320356466 -0.000278029678414 
0.000117797425311 0.000141192389864 -0.000177127564901 
0.000107436196142 7.25327237331e-05 -8.50791326843e-05 
8.10550398391e-05 2.26065187606e-05 -1.69232300244e-05 
4.37848634036e-05 -8.22566769821e-06 2.50923415019e-05 
2.14822444852e-07 -1.87827038156e-05 3.95809276511e-05 
-4.32877237557e-05 -7.80456696213e-06 2.44857272025e-05 
-8.2030784121e-05 2.36863991413e-05 -1.85886114385e-05 
-0.000108473805368 7.5102382112e-05 -8.90786029308e-05 
-0.000118467858765 0.000144309020234 -0.000182173283925 
-0.000112003680408 0.000236013021266 -0.000289517744358 
-7.94856033416e-05 0.000365066281761 -0.000412309837875 
-8.78962063713e-06 0.000513382354473 -0.000546844627865 
0.000113188633674 0.000667008618745 -0.000694058640293 
0.000326180345791 0.000808060366543 -0.000865446267804 
0.00314022395246 -0.000151260950687 -0.00622349346587 
0.00313244326577 -3.15966545783e-05 -0.00837527138912 
0.0031395119573 0.000106015119057 -0.0106015457236 
0.00311617102556 0.000315799050761 -0.0131019349788 
0.00297766471397 0.000671183406566 -0.0160759097432 
0.00242019607576 0.00135575466061 -0.0197968090222 
0.00124834533655 0.00240911176583 -0.0246714158172 
0.000485094043803 0.00384016709883 -0.030570169256 
0.000394158622089 0.00464227411078 -0.0340639168831 
7.95603130394e-05 0.00496834015956 -0.0352194339369 
-0.000239768587528 0.0046801225183 -0.0342989786591 
-0.000290406948012 0.00388150060664 -0.0309456169434 
-0.000862904327051 0.00245996071626 -0.0251038062616 
-0.00201774682939 0.00141546030471 -0.0200995838822 
-0.00269801376672 0.000710960650917 -0.0162309457232 
-0.00296167836237 0.000322052925847 -0.0131182735724 
-0.00301698805419 0.000102133682477 -0.0105672215135 
-0.00301199577482 -0.000153279175366 -0.0062226377346 
0.000773449464687 -0.000107738843933 -0.00636701595964 
-0.00142620666401 -7.99329482479e-05 -0.00643602027289 
-0.00343723384767 -5.90896665683e-05 -0.00647324259552 
-0.00519659134483 -4.84006096396e-05 -0.00644277564939 
-0.00663443989924 -2.6866113915e-05 -0.00646133530663 
-0.00763531276808 2.34577806682e-05 -0.0065240511796 
-0.0081629868534 0.000104660006837 -0.00656499959077 
-0.00823176833673 0.00020355080366 -0.006523687378 
-0.00788744350637 0.000315805832766 -0.00636982653026 
-0.00720729910733 0.000440429472118 -0.00610841248316 
-0.00625767023374 0.000590711760498 -0.00572695049125 
-0.00515769997941 0.000752622095484 -0.00524950119059 
-0.00403839625246 0.000909903790424 -0.00469309118241 
-0.00297902786583 0.00104423891393 -0.00404089842417 
-0.00205691129652 0.0011321316706 -0.00330969161764 
-0.00131847760863 0.00114784961971 -0.0025349836464 
-0.000765568428317 0.00106138236101 -0.00173834581212 
-0.000323872321031 0.000803226452687 -0.000857649251734 
0.000769372112044 0.00106587534523 -0.0017520607487 
0.00133089314295 0.00115655279631 -0.00256608896628 
0.00208420032362 0.00114422047365 -0.00336531667446 
0.00303056361785 0.00105478280794 -0.00412908862317 
0.00412535552049 0.000910120858688 -0.00481221283035 
0.00527175755192 0.00073661025199 -0.00538233865994 
0.00637967003847 0.000561075759112 -0.0058369958604 
0.00732422748403 0.000404450268489 -0.00618791829466 
0.00800066340448 0.00028420239481 -0.00641591525839 
0.00834105696666 0.000188236347799 -0.00655185923888 
0.00826912362207 0.000109074114656 -0.00660424645727 
0.00773598709084 4.09412027817e-05 -0.0065903723688 
0.00673595925219 -1.59593184242e-05 -0.0065254776681 
0.00530093075331 -5.4595723688e-05 -0.00645161286358 
0.00352127459596 -7.73990572371e-05 -0.00639360300662 
0.00148290594279 -9.71653855961e-05 -0.00632904216241 
-0.00071878512049 -0.000119771245138 -0.00627155842984 
0.000983482699248 0.000200977428089 -0.00130107718699 
0.00647465015259 0.002301964309 -0.0127461405426 
-0.00621524049982 0.00207568726854 -0.0123747096186 
-0.00246597909484 0.000789508307163 -0.00290490936281 
0.00248847007411 0.000784371951631 -0.00289443829524 
0.00790531970186 0.00206566774058 -0.00933164319199 
0.00684081815033 0.00190839999927 -0.0111768892014 
-0.00655503304826 0.00166397444868 -0.0108992911241 
-0.00735126424688 0.00181694151147 -0.0101933668303 
-0.00287796519576 0.00111236331207 -0.0174073465672 
0.00214800376834 0.000495865979334 -0.0215850036832 
0.00259880060552 0.00101972600879 -0.0181223287 
0.00491187402036 0.00165431364946 -0.0137970002052 
-0.00149911501814 0.000546948948967 -0.00218680499178 
-0.000111511625576 -0.000238998862128 0.000164669939847 
0.000243538564314 -0.000171872965578 -1.30767191845e-05 
0.000504802045797 0.000172461818858 -0.000896550523088 
-0.000457849451096 0.000876360954935 -0.00135265399762 
-0.000219712484601 0.000689889020396 -0.00104532434276 
-4.58855657078e-05 0.000498911145995 -0.000769525452188 
5.83520819464e-05 0.000320526946018 -0.000525344258637 
0.000104386841371 0.000183983065369 -0.000318436606508 
0.00011064194063 8.29487479321e-05 -0.000142026896905 
8.75078740527e-05 1.01967556577e-05 -1.05607786485e-05 
4.7214699572e-05 -3.3121443776e-05 6.82788243413e-05 
1.85259790959e-07 -4.79631129215e-05 9.45106461125e-05 
-4.62011982676e-05 -3.29080596332e-05 6.68023143491e-05 
-8.51560186099e-05 1.23202384314e-05 -1.71252926258e-05 
-0.000105504501921 8.8085412747e-05 -0.000157089226059 
-9.62240437425e-05 0.000192823899502 -0.000342314786125 
-4.44903156291e-05 0.000335322385616 -0.000558289135193 
7.25404707357e-05 0.000520483067013 -0.000822131142689 
0.000250481688426 0.000708078439734 -0.00109933405465 
0.000477671143276 0.000887121664536 -0.00138941561318 
0.00073166064037 7.91774934085e-05 -0.00848623702217 
0.000687831604752 0.000282286087896 -0.0107689823566 
0.000707420981245 0.00052849553709 -0.0133328255393 
0.000794442287992 0.000807572458135 -0.0162336758915 
0.000559045325157 0.00121857704574 -0.0198928961113 
3.62437705284e-05 0.00179339034927 -0.0241869799489 
-0.000284540330261 0.00236273302292 -0.0283945733717 
-0.000205694239113 0.00275956703324 -0.0316253383832 
3.45586623087e-05 0.002913156304 -0.0329321974432 
0.000272675645584 0.00282262654805 -0.0322115743764 
0.000427379505306 0.0024397294304 -0.0294457886388 
0.000314878649991 0.00184268439073 -0.0251551957645 
-8.65590885713e-05 0.00128046474093 -0.02050013681 
-0.000504256814798 0.000845525095872 -0.0164095052715 
-0.000680246820051 0.000500341978861 -0.01315721617 
-0.000698019293029 0.00024975747502 -0.0105839726059 
-0.000691817626519 5.85088365027e-05 -0.00834665233298 
-0.00155540508889 0.000193712212149 -0.00855284623346 
-0.00352554787998 0.000282879382528 -0.00836223578914 
-0.00527810999855 0.000340623117759 -0.00790149439441 
-0.00672694482093 0.000383165221899 -0.00752639072865 
-0.00769156743376 0.000469173594364 -0.00734199326085 
-0.00817361590181 0.000560169057301 -0.00713218151664 
-0.00819414159945 0.000641114494027 -0.00685027867238 
-0.00781658096515 0.000707999457809 -0.00647989107731 
-0.00709476510388 0.000764454200307 -0.0060058335702 
-0.00607042199252 0.000823333435396 -0.0054283158838 
-0.0048819577514 0.000872705703644 -0.00478477182532 
-0.0036897950477 0.000916752297831 -0.00413258703146 
-0.00260960044839 0.000961439494823 -0.00344744240739 
-0.0016995008264 0.000988463158898 -0.00274197340734 
-0.000985247666133 0.000974893782959 -0.00203748004306 
0.00103471555559 0.000986755657439 -0.0021074707822 
0.0018014527547 0.00100242186582 -0.00285806369245 
0.00276800742667 0.000972529074355 -0.00360803370782 
0.00391516672829 0.000911990961624 -0.00432724882178 
0.00511171606648 0.00083712822345 -0.00496861095281 
0.00625658719057 0.000759764697849 -0.00554697274235 
0.00723040958614 0.000696409464439 -0.00605272201788 
0.00794245980018 0.000644860303093 -0.00648908429246 
0.00831363430697 0.000608476002397 -0.00686694921951 
0.00826881460912 0.000560013221031 -0.00718649223177 
0.00774134159875 0.000490837039238 -0.00744356221398 
0.00673405525082 0.000416834800344 -0.00769764251191 
0.00528291536108 0.000326726218407 -0.00793445199508 
0.00350757350708 0.000237322559335 -0.00815156262418 
0.00149082132749 0.000146918158638 -0.0082865468225 
0.00148937360106 0.000525300750278 -0.00215099451178 
0.00571517575239 0.00165931638226 -0.0121974363802 
-0.00422637036452 0.00138382587425 -0.0135499433131 
-0.0024071684998 0.000807692754691 -0.0030633636635 
0.00202801537947 0.000723259194671 -0.00273306478415 
0.0031127235272 0.000901336842649 -0.00350267671417 
0.00437146342542 0.00113501351912 -0.00429694225615 
0.00772983986299 0.00151030149103 -0.00932233021098 
0.0067351095963 0.00138793629365 -0.0100717253057 
-0.00513298805264 0.00123650328129 -0.0112947936522 
-0.0068462107281 0.00126160315051 -0.00957840870042 
-0.00769997880757 0.00150871088041 -0.00918413432464 
-0.0079528827911 0.00165538187327 -0.00880977924721 
-0.00792359062534 0.00167940091093 -0.00821194501615 
-0.00755936513118 0.0016120273011 -0.00732055285294 
-0.00690086687325 0.00148928640135 -0.00640115341878 
-0.00595047618451 0.00134121252549 -0.00548919437524 
-0.00481322495876 0.00118316647189 -0.00463570358581 
-0.00330519466175 0.000938118319387 -0.00366443244998 
-0.00116455522969 0.000655114505861 -0.0240827319711 
-0.00170943550577 0.00102312770092 -0.0186637702945 
-0.000694238952502 0.000311684594837 -0.0281094788266 
-0.000215161835769 0.000135540103775 -0.0301584627304 
0.000281967245546 0.000115095470011 -0.0302564439676 
0.000779704723974 0.000235721104254 -0.0284221162027 
0.00132069444508 0.000528061773842 -0.0244338915739 
0.00171366466414 0.000985454658892 -0.0195444933178 
0.00362434192318 0.001265997252 -0.0144716868567 
-0.000898904895126 0.00045979853122 -0.00163754502318 
-0.000474936614583 0.000172709915459 -0.000878543750525 
-0.000301428567019 -4.17585745516e-05 -0.00031824869464 
0.000228040204337 0.000190663495445 -0.000682120923437 
0.00085475958694 0.000421138723491 -0.00154899299021 
-0.000647839613098 0.000789250808762 -0.00159878969651 
-0.000347009679019 0.000587516616322 -0.00119161912219 
-0.00012166959565 0.000378196415758 -0.000800838518523 
-2.11320758569e-06 0.000195207184394 -0.000465275418251 
4.15505303035e-05 6.46887046674e-05 -0.000196275209306 
3.95860788699e-05 -2.89587749031e-05 3.562509325e-06 
2.21253615238e-05 -8.10835135451e-05 0.000114981171399 
1.37512026744e-06 -9.85096226607e-05 0.000149402711008 
-1.76301513054e-05 -8.02968296691e-05 0.000109324414241 
-3.06975482418e-05 -2.55481036234e-05 -1.20459631929e-05 
-2.17460460188e-05 6.92699467993e-05 -0.0002240492585 
3.34112909717e-05 0.000205211639292 -0.000511260148135 
0.000175513164938 0.000397100218319 -0.000880992810844 
0.000450817111504 0.000616380807122 -0.00132359648543 
0.000759473307763 0.000813592173089 -0.00173391924984 
-0.00158586650159 0.000489717862976 -0.0108347924003 
-0.00132733663233 0.000774551426704 -0.0135617801185 
-0.000956183398022 0.000924428292385 -0.0169518327211 
-0.000410633814048 0.00106170799915 -0.0196622635214 
-0.000705812183887 0.00119749455807 -0.0224579123214 
-0.000668574980055 0.00132407380149 -0.0262890217618 
-0.000406919293052 0.00138858610403 -0.0296682209092 
-3.93710014709e-05 0.00141339750421 -0.0312734658328 
0.000320304345196 0.00139721197158 -0.0309381351053 
0.000650486674445 0.00130476758253 -0.0286623791264 
0.000887911095516 0.00119615937497 -0.0248974011292 
0.000979778813564 0.00110031705256 -0.0204909636701 
0.00106113489062 0.000909317553017 -0.0161520942061 
0.00127698332882 0.000662802296563 -0.012895530892 
0.00144017301596 0.000399343758301 -0.0104093600238 
-0.00371301452064 0.000746443151957 -0.0105826097094 
-0.005467986461 0.000735023239911 -0.00912643270141 
-0.00686053193793 0.000821671559261 -0.00853272862981 
-0.00772254630413 0.000979903219159 -0.00825139808189 
-0.00811743310683 0.00106782032967 -0.00785530003046 
-0.00809326396891 0.00112828695105 -0.00740206108145 
-0.00771747742297 0.00113087405539 -0.00682505089833 
-0.00699257329492 0.0011013131947 -0.00614015323068 
-0.00593830214009 0.00105535723513 -0.00538098019571 
-0.00452007303861 0.00099009402092 -0.00448965092275 
-0.00318113557893 0.000901230011547 -0.00366930943125 
-0.00211609953002 0.000860731183116 -0.0029239437996 
-0.00127693633434 0.00083278936636 -0.00222950834995 
0.00147530784931 0.000852520950206 -0.00242518467358 
0.00247003823558 0.000891288703815 -0.00321299894833 
0.00368216283604 0.000918703424208 -0.00401669783316 
0.00491871108972 0.000937117790742 -0.00474470064605 
0.00608346455399 0.000957607476937 -0.00542625882384 
0.00707637344317 0.000988502187804 -0.00608102826343 
0.00781360959517 0.00102595987168 -0.00671937765757 
0.00822096535265 0.00105290416636 -0.00733014186534 
0.00821988980764 0.00105254467174 -0.00789308222294 
0.00773343293622 0.00100621827886 -0.00841539354934 
0.00669441867523 0.000891680306021 -0.00891605381343 
0.00519769047064 0.000746920776681 -0.009539129948 
0.00341976335219 0.000568887732555 -0.0100467522496 
-0.0015087266376 0.000704472434154 -0.00234939831107 
-0.00283411563177 0.00104499877457 -0.0137465960745 
0.0030522243548 0.000869388712181 -0.0122865933328 
-0.000828372183508 0.00064194116749 -0.00171286626054 
0.00109761794095 0.000671605762554 -0.00198473098603 
0.00557868202242 0.00136325772055 -0.00514664495147 
-0.000217841115501 -0.000342372839086 0.000140823505369 
-0.000217841115501 0.000342372839086 0.000140823505369 
0.00557868202242 -0.00136325772055 -0.00514664495147 
0.00109761794095 -0.000671605762554 -0.00198473098603 
-0.000828372183508 -0.00064194116749 -0.00171286626054 
0.0030522243548 -0.000869388712181 -0.0122865933328 
-0.00283411563177 -0.00104499877457 -0.0137465960745 
-0.0015087266376 -0.000704472434154 -0.00234939831107 
0.00341976335219 -0.000568887732555 -0.0100467522496 
0.00519769047064 -0.000746920776681 -0.009539129948 
0.00669441867523 -0.000891680306021 -0.00891605381343 
0.00773343293622 -0.00100621827886 -0.00841539354934 
0.00821988980764 -0.00105254467174 -0.00789308222294 
0.00822096535265 -0.00105290416636 -0.00733014186534 
0.00781360959517 -0.00102595987168 -0.00671937765757 
0.00707637344317 -0.000988502187804 -0.00608102826343 
0.00608346455399 -0.000957607476937 -0.00542625882384 
0.00491871108972 -0.000937117790742 -0.00474470064605 
0.00368216283604 -0.000918703424208 -0.00401669783316 
0.00247003823558 -0.000891288703815 -0.00321299894833 
0.00147530784931 -0.000852520950206 -0.00242518467358 
-0.00127693633434 -0.00083278936636 -0.00222950834995 
-0.00211609953002 -0.000860731183116 -0.0029239437996 
-0.00318113557893 -0.000901230011547 -0.00366930943125 
-0.00452007303861 -0.00099009402092 -0.00448965092275 
-0.00593830214009 -0.00105535723513 -0.00538098019571 
-0.00699257329492 -0.0011013131947 -0.00614015323068 
-0.00771747742297 -0.00113087405539 -0.00682505089833 
-0.00809326396891 -0.00112828695105 -0.00740206108145 
-0.00811743310683 -0.00106782032967 -0.00785530003046 
-0.00772254630413 -0.000979903219159 -0.00825139808189 
-0.00686053193793 -0.000821671559261 -0.00853272862981 
-0.005467986461 -0.000735023239911 -0.00912643270141 
-0.00371301452064 -0.000746443151957 -0.0105826097094 
0.00144017301596 -0.000399343758301 -0.0104093600238 
0.00127698332882 -0.000662802296563 -0.012895530892 
0.00106113489062 -0.000909317553017 -0.0161520942061 
0.000979778813564 -0.00110031705256 -0.0204909636701 
0.000887911095516 -0.00119615937497 -0.0248974011292 
0.000650486674445 -0.00130476758253 -0.0286623791264 
0.000320304345196 -0.00139721197158 -0.0309381351053 
-3.93710014709e-05 -0.00141339750421 -0.0312734658328 
-0.000406919293052 -0.00138858610403 -0.0296682209092 
-0.000668574980055 -0.00132407380149 -0.0262890217618 
-0.000705812183887 -0.00119749455807 -0.0224579123214 
-0.000410633814048 -0.00106170799915 -0.0196622635214 
-0.000956183398022 -0.000924428292385 -0.0169518327211 
-0.00132733663233 -0.000774551426704 -0.0135617801185 
-0.00158586650159 -0.000489717862976 -0.0108347924003 
0.000759473307763 -0.000813592173089 -0.00173391924984 
0.000450817111504 -0.000616380807122 -0.00132359648543 
0.000175513164938 -0.000397100218319 -0.000880992810844 
3.34112909717e-05 -0.000205211639292 -0.000511260148135 
-2.17460460188e-05 -6.92699467993e-05 -0.0002240492585 
-3.06975482418e-05 2.55481036234e-05 -1.20459631929e-05 
-1.76301513054e-05 8.02968296691e-05 0.000109324414241 
1.37512026744e-06 9.85096226607e-05 0.000149402711008 
2.21253615238e-05 8.10835135451e-05 0.000114981171399 
3.95860788699e-05 2.89587749031e-05 3.562509325e-06 
4.15505303035e-05 -6.46887046674e-05 -0.000196275209306 
-2.11320758569e-06 -0.000195207184394 -0.000465275418251 
-0.00012166959565 -0.000378196415758 -0.000800838518523 
-0.000347009679019 -0.000587516616322 -0.00119161912219 
-0.000647839613098 -0.000789250808762 -0.00159878969651 
0.00085475958694 -0.000421138723491 -0.00154899299021 
0.000228040204337 -0.000190663495445 -0.000682120923437 
-0.000301428567019 4.17585745516e-05 -0.00031824869464 
-0.000474936614583 -0.000172709915459 -0.000878543750525 
-0.000898904895126 -0.00045979853122 -0.00163754502318 
0.00362434192318 -0.001265997252 -0.0144716868567 
0.00171366466414 -0.000985454658892 -0.0195444933178 
0.00132069444508 -0.000528061773842 -0.0244338915739 
0.000779704723974 -0.000235721104254 -0.0284221162027 
0.000281967245546 -0.000115095470011 -0.0302564439676 
-0.000215161835769 -0.000135540103775 -0.0301584627304 
-0.000694238952502 -0.000311684594837 -0.0281094788266 
-0.00170943550577 -0.00102312770092 -0.0186637702945 
-0.00116455522969 -0.000655114505861 -0.0240827319711 
-0.00330519466175 -0.000938118319387 -0.00366443244998 
-0.00481322495876 -0.00118316647189 -0.00463570358581 
-0.00595047618451 -0.00134121252549 -0.00548919437524 
-0.00690086687325 -0.00148928640135 -0.00640115341878 
-0.00755936513118 -0.0016120273011 -0.00732055285294 
-0.00792359062534 -0.00167940091093 -0.00821194501615 
-0.0079528827911 -0.00165538187327 -0.00880977924721 
-0.00769997880757 -0.00150871088041 -0.00918413432464 
-0.0068462107281 -0.00126160315051 -0.00957840870042 
-0.00513298805264 -0.00123650328129 -0.0112947936522 
0.0067351095963 -0.00138793629365 -0.0100717253057 
0.00772983986299 -0.00151030149103 -0.00932233021098 
0.00437146342542 -0.00113501351912 -0.00429694225615 
0.0031127235272 -0.000901336842649 -0.00350267671417 
0.00202801537947 -0.000723259194671 -0.00273306478415 
-0.0024071684998 -0.000807692754691 -0.0030633636635 
-0.00422637036452 -0.00138382587425 -0.0135499433131 
0.00571517575239 -0.00165931638226 -0.0121974363802 
0.00148937360106 -0.000525300750278 -0.00215099451178 
0.00149082132749 -0.000146918158638 -0.0082865468225 
0.00350757350708 -0.000237322559335 -0.00815156262418 
0.00528291536108 -0.000326726218407 -0.00793445199508 
0.00673405525082 -0.000416834800344 -0.00769764251191 
0.00774134159875 -0.000490837039238 -0.00744356221398 
0.00826881460912 -0.000560013221031 -0.00718649223177 
0.00831363430697 -0.000608476002397 -0.00686694921951 
0.00794245980018 -0.000644860303093 -0.00648908429246 
0.00723040958614 -0.000696409464439 -0.00605272201788 
0.00625658719057 -0.000759764697849 -0.00554697274235 
0.00511171606648 -0.00083712822345 -0.00496861095281 
0.00391516672829 -0.000911990961624 -0.00432724882178 
0.00276800742667 -0.000972529074355 -0.00360803370782 
0.0018014527547 -0.00100242186582 -0.00285806369245 
0.00103471555559 -0.000986755657439 -0.0021074707822 
-0.000985247666133 -0.000974893782959 -0.00203748004306 
-0.0016995008264 -0.000988463158898 -0.00274197340734 
-0.00260960044839 -0.000961439494823 -0.00344744240739 
-0.0036897950477 -0.000916752297831 -0.00413258703146 
-0.0048819577514 -0.000872705703644 -0.00478477182532 
-0.00607042199252 -0.000823333435396 -0.0054283158838 
-0.00709476510388 -0.000764454200307 -0.00600583357021 
-0.00781658096515 -0.000707999457809 -0.00647989107731 
-0.00819414159945 -0.000641114494027 -0.00685027867238 
-0.00817361590181 -0.000560169057301 -0.00713218151664 
-0.00769156743376 -0.000469173594364 -0.00734199326085 
-0.00672694482093 -0.000383165221899 -0.00752639072865 
-0.00527810999855 -0.000340623117759 -0.00790149439441 
-0.00352554787998 -0.000282879382528 -0.00836223578914 
-0.00155540508889 -0.000193712212149 -0.00855284623346 
-0.000691817626519 -5.85088365027e-05 -0.00834665233298 
-0.000698019293029 -0.00024975747502 -0.0105839726059 
-0.00068024682005 -0.000500341978861 -0.01315721617 
-0.000504256814798 -0.000845525095872 -0.0164095052715 
-8.65590885713e-05 -0.00128046474093 -0.02050013681 
0.000314878649991 -0.00184268439073 -0.0251551957645 
0.000427379505306 -0.0024397294304 -0.0294457886388 
0.000272675645584 -0.00282262654805 -0.0322115743764 
3.45586623087e-05 -0.002913156304 -0.0329321974432 
-0.000205694239113 -0.00275956703324 -0.0316253383832 
-0.000284540330261 -0.00236273302292 -0.0283945733717 
3.62437705284e-05 -0.00179339034927 -0.0241869799489 
0.000559045325157 -0.00121857704574 -0.0198928961113 
0.000794442287992 -0.000807572458135 -0.0162336758915 
0.000707420981245 -0.00052849553709 -0.0133328255393 
0.000687831604752 -0.000282286087896 -0.0107689823566 
0.00073166064037 -7.91774934085e-05 -0.00848623702217 
0.000477671143276 -0.000887121664536 -0.00138941561318 
0.000250481688426 -0.000708078439734 -0.00109933405465 
7.25404707357e-05 -0.000520483067013 -0.000822131142689 
-4.44903156291e-05 -0.000335322385616 -0.000558289135193 
-9.62240437425e-05 -0.000192823899502 -0.000342314786125 
-0.000105504501921 -8.8085412747e-05 -0.000157089226059 
-8.51560186099e-05 -1.23202384314e-05 -1.71252926258e-05 
-4.62011982676e-05 3.29080596332e-05 6.68023143491e-05 
1.85259790959e-07 4.79631129215e-05 9.45106461125e-05 
4.7214699572e-05 3.3121443776e-05 6.82788243413e-05 
8.75078740527e-05 -1.01967556577e-05 -1.05607786485e-05 
0.00011064194063 -8.29487479321e-05 -0.000142026896905 
0.000104386841371 -0.000183983065369 -0.000318436606508 
5.83520819464e-05 -0.000320526946018 -0.000525344258637 
-4.58855657078e-05 -0.000498911145995 -0.000769525452188 
-0.000219712484601 -0.000689889020396 -0.00104532434276 
-0.000457849451096 -0.000876360954935 -0.00135265399762 
0.000504802045797 -0.000172461818858 -0.000896550523088 
0.000243538564314 0.000171872965578 -1.30767191845e-05 
-0.000111511625576 0.000238998862128 0.000164669939847 
-0.00149911501814 -0.000546948948967 -0.00218680499178 
0.00491187402036 -0.00165431364946 -0.0137970002052 
0.00259880060552 -0.00101972600879 -0.0181223287 
0.00214800376834 -0.000495865979334 -0.0215850036832 
-0.00287796519576 -0.00111236331207 -0.0174073465672 
-0.00735126424688 -0.00181694151147 -0.0101933668303 
-0.00655503304826 -0.00166397444868 -0.0108992911241 
0.00684081815033 -0.00190839999927 -0.0111768892014 
0.00790531970186 -0.00206566774058 -0.00933164319199 
0.00248847007411 -0.000784371951631 -0.00289443829524 
-0.00246597909484 -0.000789508307163 -0.00290490936281 
-0.00621524049982 -0.00207568726854 -0.0123747096186 
0.00647465015259 -0.002301964309 -0.0127461405426 
0.000983482699248 -0.000200977428089 -0.00130107718699 
-0.00071878512049 0.000119771245138 -0.00627155842984 
0.00148290594279 9.71653855961e-05 -0.00632904216241 
0.00352127459596 7.73990572371e-05 -0.00639360300662 
0.00530093075331 5.4595723688e-05 -0.00645161286358 
0.00673595925219 1.59593184242e-05 -0.0065254776681 
0.00773598709084 -4.09412027817e-05 -0.0065903723688 
0.00826912362207 -0.000109074114656 -0.00660424645727 
0.00834105696666 -0.000188236347799 -0.00655185923888 
0.00800066340448 -0.00028420239481 -0.00641591525839 
0.00732422748403 -0.000404450268489 -0.00618791829466 
0.00637967003847 -0.000561075759112 -0.0058369958604 
0.00527175755192 -0.00073661025199 -0.00538233865994 
0.00412535552049 -0.000910120858688 -0.00481221283035 
0.00303056361785 -0.00105478280794 -0.00412908862317 
0.00208420032362 -0.00114422047365 -0.00336531667446 
0.00133089314295 -0.00115655279631 -0.00256608896628 
0.000769372112044 -0.00106587534523 -0.0017520607487 
-0.000323872321031 -0.000803226452687 -0.000857649251734 
-0.000765568428317 -0.00106138236101 -0.00173834581212 
-0.00131847760863 -0.00114784961971 -0.0025349836464 
-0.00205691129652 -0.0011321316706 -0.00330969161764 
-0.00297902786583 -0.00104423891393 -0.00404089842417 
-0.00403839625246 -0.000909903790424 -0.00469309118241 
-0.00515769997941 -0.000752622095484 -0.00524950119059 
-0.00625767023374 -0.000590711760498 -0.00572695049125 
-0.00720729910733 -0.000440429472118 -0.00610841248316 
-0.00788744350637 -0.000315805832766 -0.00636982653026 
-0.00823176833673 -0.00020355080366 -0.006523687378 
-0.0081629868534 -0.000104660006837 -0.00656499959077 
-0.00763531276808 -2.34577806682e-05 -0.0065240511796 
-0.00663443989924 2.6866113915e-05 -0.00646133530663 
-0.00519659134483 4.84006096396e-05 -0.00644277564939 
-0.00343723384767 5.90896665683e-05 -0.00647324259552 
-0.00142620666401 7.99329482479e-05 -0.00643602027289 
0.000773449464687 0.000107738843933 -0.00636701595964 
-0.00301199577482 0.000153279175366 -0.0062226377346 
-0.00301698805419 -0.000102133682477 -0.0105672215135 
-0.00296167836237 -0.000322052925847 -0.0131182735724 
-0.00269801376672 -0.000710960650917 -0.0162309457232 
-0.00201774682939 -0.00141546030471 -0.0200995838822 
-0.000862904327051 -0.00245996071626 -0.0251038062616 
-0.000290406948012 -0.00388150060664 -0.0309456169434 
-0.000239768587528 -0.0046801225183 -0.0342989786591 
7.95603130394e-05 -0.00496834015956 -0.0352194339369 
0.000394158622089 -0.00464227411078 -0.0340639168831 
0.000485094043803 -0.00384016709883 -0.030570169256 
0.00124834533655 -0.00240911176583 -0.0246714158172 
0.00242019607576 -0.00135575466061 -0.0197968090222 
0.00297766471397 -0.000671183406566 -0.0160759097432 
0.00311617102556 -0.000315799050761 -0.0131019349788 
0.0031395119573 -0.000106015119057 -0.0106015457236 
0.00313244326577 3.15966545783e-05 -0.00837527138912 
0.00314022395246 0.000151260950687 -0.00622349346587 
0.000326180345791 -0.000808060366543 -0.000865446267804 
0.000113188633674 -0.000667008618745 -0.000694058640293 
-8.78962063713e-06 -0.000513382354473 -0.000546844627865 
-7.94856033416e-05 -0.000365066281761 -0.000412309837875 
-0.000112003680408 -0.000236013021266 -0.000289517744358 