<?xml version="1.0"?>
<VTKFile type="UnstructuredGrid" version="0.1" byte_order="LittleEndian" compressor="vtkZLibDataCompressor">
<UnstructuredGrid>
<Piece NumberOfPoints="465" NumberOfCells="256">
<PointData>
<DataArray type="Float64" Name="displacement" NumberOfComponents="3" format="ascii" >
-8.13275093179e-18 -0.00593791154123  0.
-0.000163095441059 -0.00555139131974  0.
-3.74229309661e-05 -0.00591093324844  0.
-7.5171614844e-05 -0.00583306686891  0.
-0.000114264535479 -0.00571088031918  0.
1.89327775306e-18 -0.00509717615704  0.
-6.5867764942e-18 -0.00572941181015  0.
-4.3612916015e-18 -0.00551950943518  0.
-1.21606052008e-18 -0.00530867073068  0.
-0.000137716322596 -0.00514141901157  0.
-0.000103779486161 -0.0051203089022  0.
-6.93875328429e-05 -0.00510701137822  0.
-3.47408160623e-05 -0.00509956927333  0.
-0.000145900093593 -0.00524074374037  0.
-0.000152629375485 -0.00534209244741  0.
-0.000158105695238 -0.00544567673776  0.
-0.000113649826361 -0.00556304062847  0.
-0.000111743943699 -0.00541527447554  0.
-0.00010852054706 -0.0052676861107  0.
-7.35386990511e-05 -0.00565287974922  0.
-7.30333092207e-05 -0.00547149544227  0.
-7.18816290811e-05 -0.00528941989509  0.
-3.63535104121e-05 -0.00570984458487  0.
-3.60858988917e-05 -0.00550721918618  0.
-3.57789244101e-05 -0.00530370487074  0.
0.000163095441059 -0.00555139131974  0.
3.74229309661e-05 -0.00591093324844  0.
7.51716148439e-05 -0.00583306686891  0.
0.000114264535479 -0.00571088031918  0.
0.000137716322596 -0.00514141901157  0.
0.000158105695238 -0.00544567673776  0.
0.000152629375485 -0.00534209244741  0.
0.000145900093593 -0.00524074374037  0.
0.000103779486161 -0.0051203089022  0.
6.93875328429e-05 -0.00510701137822  0.
3.47408160623e-05 -0.00509956927333  0.
3.63535104121e-05 -0.00570984458487  0.
3.60858988917e-05 -0.00550721918618  0.
3.577892441e-05 -0.00530370487074  0.
7.35386990511e-05 -0.00565287974922  0.
7.30333092207e-05 -0.00547149544227  0.
7.18816290811e-05 -0.00528941989509  0.
0.000113649826361 -0.00556304062847  0.
0.000111743943699 -0.00541527447554  0.
0.00010852054706 -0.0052676861107  0.
0.000186506420605 -0.00336499455138  0.
1.14700347233e-17 -0.00336925109882  0.
0.000140978795316 -0.00336764359139  0.
9.43701217612e-05 -0.00336881087411  0.
4.72677327756e-05 -0.00336918293009  0.
0.00025018983622 -0.00296360747678  0.
0.000203999660274 -0.00326820142131  0.
0.000220309412171 -0.00316903616279  0.
0.000235342489947 -0.00306722575683  0.
5.35615952289e-18 -0.00245634200697  0.
6.173638783e-05 -0.00249239970503  0.
0.000121955122131 -0.00259404320717  0.
0.000184688442516 -0.00274959801721  0.
8.95634867614e-18 -0.00268933159318  0.
1.08273604429e-17 -0.00291914296686  0.
1.13345064233e-17 -0.00314564399186  0.
5.23636675443e-05 -0.00315399111574  0.
5.61222586643e-05 -0.00293625969298  0.
5.87258455087e-05 -0.00271569857935  0.
0.000104424354545 -0.00317828091753  0.
0.000112457238863 -0.00298572015142  0.
0.000118104176511 -0.00279107121296  0.
0.000155427463431 -0.00321673130092  0.
0.000168114322556 -0.00306379443352  0.
0.000178477465823 -0.00290840419749  0.
-0.00025018983622 -0.00296360747678  0.
-6.173638783e-05 -0.00249239970503  0.
-0.000121955122131 -0.00259404320717  0.
-0.000184688442516 -0.00274959801721  0.
-0.000186506420605 -0.00336499455138  0.
-0.000203999660274 -0.00326820142131  0.
-0.000220309412171 -0.00316903616279  0.
-0.000235342489947 -0.00306722575683  0.
-0.000140978795316 -0.00336764359139  0.
-9.43701217612e-05 -0.00336881087411  0.
-4.72677327756e-05 -0.00336918293009  0.
-5.87258455087e-05 -0.00271569857935  0.
-5.61222586642e-05 -0.00293625969298  0.
-5.23636675442e-05 -0.00315399111574  0.
-0.000118104176511 -0.00279107121296  0.
-0.000112457238863 -0.00298572015142  0.
-0.000104424354545 -0.00317828091753  0.
-0.000178477465823 -0.00290840419749  0.
-0.000168114322556 -0.00306379443352  0.
-0.000155427463431 -0.00321673130092  0.
-0.000176658937904 -0.00426712183159  0.
-0.000187723786924 -0.00359273401104  0.
-0.000186125352369 -0.00381907668747  0.
-0.000182336901703 -0.00404390653159  0.
-0.000315308889226 -0.00435904924058  0.
-0.000325397359832 -0.00396548408084  0.
-0.000319538313333 -0.00358207578911  0.
-0.000294967806782 -0.00323792036983  0.
-0.000286984798562 -0.00432744940304  0.
-0.000253901715969 -0.00430205072035  0.
-0.000216834474042 -0.00428218786223  0.
-0.000223055805251 -0.00402185362889  0.
-0.00026106297427 -0.00400122296652  0.
-0.000295406158195 -0.00398222866232  0.
-0.000223312426397 -0.00376274460271  0.
-0.000258540602203 -0.00370480350974  0.
-0.000290984264207 -0.00364444339884  0.
-0.00021698974798 -0.0035100062019  0.
-0.000245132996718 -0.00342429569624  0.
-0.000271555953224 -0.00333447803634  0.
-0.000292569347815 -0.00473479158194  0.
-0.000257194572288 -0.00506883669027  0.
-0.000212208168856 -0.00534462037472  0.
-0.000149719002595 -0.00492579874827  0.
-0.000160273835539 -0.00470818663162  0.
-0.000169271474021 -0.00448859281256  0.
-0.000267596846935 -0.00466070605023  0.
-0.000238294439823 -0.00459552726357  0.
-0.000205264251501 -0.00453852154712  0.
-0.000238167290545 -0.0049652919299  0.
-0.000215125864059 -0.00487128004978  0.
-0.000188951133331 -0.00478608896118  0.
-0.000200665241664 -0.00522863088036  0.
-0.000185826432381 -0.00512152704548  0.
-0.000168687362575 -0.00502103951299  0.
0.000315308889226 -0.00435904924058  0.
0.000325397359832 -0.00396548408084  0.
0.000319538313333 -0.00358207578911  0.
0.000294967806782 -0.00323792036983  0.
0.000176658937904 -0.00426712183159  0.
0.000187723786924 -0.00359273401104  0.
0.000186125352369 -0.00381907668747  0.
0.000182336901703 -0.00404390653159  0.
0.000286984798562 -0.00432744940304  0.
0.000253901715969 -0.00430205072035  0.
0.000216834474042 -0.00428218786223  0.
0.000295406158195 -0.00398222866232  0.
0.00026106297427 -0.00400122296652  0.
0.000223055805251 -0.00402185362889  0.
0.000290984264207 -0.00364444339884  0.
0.000258540602203 -0.00370480350974  0.
0.000223312426397 -0.00376274460271  0.
0.000271555953224 -0.00333447803634  0.
0.000245132996718 -0.00342429569624  0.
0.00021698974798 -0.0035100062019  0.
0.000292569347815 -0.00473479158194  0.
0.000257194572288 -0.00506883669027  0.
0.000212208168856 -0.00534462037472  0.
0.000149719002595 -0.00492579874827  0.
0.000160273835539 -0.00470818663162  0.
0.000169271474021 -0.00448859281256  0.
0.000200665241664 -0.00522863088036  0.
0.000185826432381 -0.00512152704548  0.
0.000168687362575 -0.00502103951299  0.
0.000238167290545 -0.0049652919299  0.
0.000215125864059 -0.00487128004978  0.
0.000188951133331 -0.00478608896118  0.
0.000267596846935 -0.00466070605023  0.
0.000238294439823 -0.00459552726357  0.
0.000205264251501 -0.00453852154712  0.
0.000142220103494 -0.00359200018886  0.
0.000141268368418 -0.00381489067378  0.
0.00013849731357 -0.00403633931918  0.
0.000134174961376 -0.0042562999793  0.
0.000128454876979 -0.0044747284278  0.
0.000121427862276 -0.00469157912387  0.
0.000113184446285 -0.00490680287618  0.
9.53734916651e-05 -0.00359124363159  0.
9.48901556753e-05 -0.00381196403766  0.
9.31026785859e-05 -0.00403115973808  0.
9.0195502432e-05 -0.00424893090265  0.
8.62875335901e-05 -0.00446533715195  0.
8.14519387945e-05 -0.00468043170672  0.
7.57460908125e-05 -0.00489427555029  0.
4.78328838276e-05 -0.00359063491275  0.
4.76382722867e-05 -0.00381018963252  0.
4.67676278794e-05 -0.00402813037717  0.
4.53084249904e-05 -0.00424466054226  0.
4.33244565719e-05 -0.00445993045908  0.
4.08545121039e-05 -0.00467407419164  0.
3.79518476362e-05 -0.00488724174649  0.
1.19641376916e-17 -0.0035904036438  0.
1.20646095982e-17 -0.00380959127982  0.
1.18129811557e-17 -0.00402713182944  0.
1.0949746238e-17 -0.00424326292055  0.
9.49272684546e-18 -0.00445816855823  0.
7.52961324313e-18 -0.00467201562881  0.
4.88184445709e-18 -0.00488496915044  0.
-4.78328838276e-05 -0.00359063491275  0.
-4.76382722866e-05 -0.00381018963252  0.
-4.67676278794e-05 -0.00402813037717  0.
-4.53084249904e-05 -0.00424466054226  0.
-4.33244565719e-05 -0.00445993045908  0.
-4.08545121039e-05 -0.00467407419164  0.
-3.79518476361e-05 -0.00488724174649  0.
-9.53734916651e-05 -0.00359124363159  0.
-9.48901556753e-05 -0.00381196403766  0.
-9.31026785859e-05 -0.00403115973808  0.
-9.0195502432e-05 -0.00424893090265  0.
-8.62875335901e-05 -0.00446533715195  0.
-8.14519387944e-05 -0.00468043170672  0.
-7.57460908125e-05 -0.00489427555029  0.
-0.000142220103494 -0.00359200018886  0.
-0.000141268368418 -0.00381489067378  0.
-0.00013849731357 -0.00403633931918  0.
-0.000134174961376 -0.0042562999793  0.
-0.000128454876979 -0.0044747284278  0.
-0.000121427862276 -0.00469157912387  0.
-0.000113184446285 -0.00490680287618  0.
0.000166019728715 -0.00298832420863  0.
2.39012274432e-18 -0.0024307982318  0.
0.000193657183105 -0.0028317571342  0.
0.0001828768272 -0.00265494653711  0.
0.000115979521764 -0.00249788714712  0.
8.38050365932e-18 -0.00247117889755  0.
6.75865382045e-18 -0.00247350146258  0.
4.5070276063e-18 -0.00245985196526  0.
0.00018722194389 -0.00308569821968  0.
0.000208977857703 -0.00313863406977  0.
0.000232081539065 -0.0031207658065  0.
0.000210759104092 -0.00288672744029  0.
0.000221876083197 -0.00290392756866  0.
0.000220318085259 -0.00286662264041  0.
0.000188702727203 -0.00268781177151  0.
0.000187154399235 -0.00269314531722  0.
0.000171314668428 -0.00266458928068  0.
0.000115084788786 -0.00252599928207  0.
0.000109127594878 -0.00253535072264  0.
9.44046091957e-05 -0.00252383784114  0.
-0.000166019728715 -0.00298832420863  0.
-0.000193657183105 -0.0028317571342  0.
-0.0001828768272 -0.00265494653711  0.
-0.000115979521764 -0.00249788714712  0.
-0.00018722194389 -0.00308569821968  0.
-0.000208977857703 -0.00313863406977  0.
-0.000232081539065 -0.0031207658065  0.
-0.000115084788786 -0.00252599928207  0.
-0.000109127594878 -0.00253535072264  0.
-9.44046091957e-05 -0.00252383784114  0.
-0.000188702727203 -0.00268781177151  0.
-0.000187154399235 -0.00269314531722  0.
-0.000171314668428 -0.00266458928068  0.
-0.000210759104092 -0.00288672744029  0.
-0.000221876083197 -0.00290392756866  0.
-0.000220318085259 -0.00286662264041  0.
-0.000101369904744 -0.00546949877913  0.
-0.000116649534973 -0.00543265044585  0.
-0.000132428533211 -0.00541582046747  0.
-0.000149180007775 -0.00543930544291  0.
-6.62582585239e-18 -0.00592028708791  0.
-0.000121766572182 -0.00559332857096  0.
-0.000119969756035 -0.00573809726731  0.
-7.83776002598e-05 -0.00586632851987  0.
-8.41948090314e-18 -0.0059263253692  0.
-7.81417426775e-18 -0.00591785918553  0.
-7.14473110435e-18 -0.00591590634353  0.
-6.31103193852e-05 -0.00588602577983  0.
-7.42693181319e-05 -0.00586977603847  0.
-7.83019472035e-05 -0.00586374737923  0.
-0.000114189235449 -0.00577688404728  0.
-0.0001251777339 -0.00574659549805  0.
-0.000125151291374 -0.00573548270151  0.
-0.000144645722151 -0.00562203757984  0.
-0.000144063328691 -0.00558546245279  0.
-0.00013446352548 -0.00557998577162  0.
0.000101369904744 -0.00546949877913  0.
0.000121766572182 -0.00559332857096  0.
0.000119969756035 -0.00573809726731  0.
7.83776002598e-05 -0.00586632851987  0.
0.000116649534973 -0.00543265044585  0.
0.000132428533211 -0.00541582046747  0.
0.000149180007775 -0.00543930544291  0.
0.000144645722151 -0.00562203757984  0.
0.000144063328691 -0.00558546245279  0.
0.00013446352548 -0.00557998577162  0.
0.000114189235449 -0.00577688404728  0.
0.0001251777339 -0.00574659549805  0.
0.000125151291374 -0.00573548270151  0.
6.31103193851e-05 -0.00588602577983  0.
7.42693181318e-05 -0.00586977603847  0.
7.83019472035e-05 -0.00586374737923  0.
1.32042578948e-05 -0.00440778734779  0.
0.000147952523724 -0.00333491551989  0.
0.000103475080552 -0.00369468411451  0.
4.63723573192e-05 -0.00405873832879  0.
0.000170040481339 -0.00437528018054  0.
8.82909355633e-05 -0.00438937942268  0.
4.05924536115e-05 -0.00440024382821  0.
7.17275979542e-05 -0.00405667267012  0.
0.000114282259749 -0.00404514265152  0.
0.000188113271643 -0.00401870044104  0.
0.000122898482403 -0.00371281477342  0.
0.000153769879862 -0.00371188239094  0.
0.000208994608716 -0.00367984629042  0.
0.000166034558729 -0.00338678762604  0.
0.000188955598612 -0.00340780228258  0.
0.000225504713991 -0.00337849078205  0.
-1.32042578948e-05 -0.00440778734779  0.
-0.000147952523724 -0.00333491551989  0.
-0.000103475080552 -0.00369468411451  0.
-4.63723573192e-05 -0.00405873832879  0.
-0.000170040481339 -0.00437528018054  0.
-8.82909355633e-05 -0.00438937942268  0.
-4.05924536115e-05 -0.00440024382821  0.
-0.000166034558729 -0.00338678762604  0.
-0.000188955598612 -0.00340780228258  0.
-0.000225504713991 -0.00337849078205  0.
-0.000122898482403 -0.00371281477342  0.
-0.000153769879862 -0.00371188239094  0.
-0.000208994608716 -0.00367984629042  0.
-7.17275979542e-05 -0.00405667267012  0.
-0.000114282259749 -0.00404514265152  0.
-0.000188113271643 -0.00401870044104  0.
-9.02975289343e-05 -0.00526548943025  0.
-6.12629005633e-05 -0.00501881061272  0.
-2.52504707406e-05 -0.00473032649566  0.
-4.66214118531e-05 -0.00472220804084  0.
-8.63713408557e-05 -0.00471602134732  0.
-0.000158404404864 -0.00471616757982  0.
-7.48853714604e-05 -0.00500482738897  0.
-0.00010023730626 -0.00499924711422  0.
-0.000151299379418 -0.0050112397816  0.
-0.000102985123232 -0.0052401285265  0.
-0.000119253466408 -0.005231154314  0.
-0.000148310845433 -0.00525010248207  0.
9.02975289343e-05 -0.00526548943025  0.
6.12629005633e-05 -0.00501881061272  0.
2.52504707406e-05 -0.00473032649566  0.
0.000102985123232 -0.0052401285265  0.
0.000119253466408 -0.005231154314  0.
0.000148310845433 -0.00525010248207  0.
7.48853714604e-05 -0.00500482738897  0.
0.00010023730626 -0.00499924711422  0.
0.000151299379418 -0.0050112397816  0.
4.6621411853e-05 -0.00472220804084  0.
8.63713408557e-05 -0.00471602134732  0.
0.000158404404864 -0.00471616757982  0.
0.0 0.0  0.
0.0 -0.00441927581457  0.
0.0 -0.00140828662884  0.
0.0 -0.00263037513926  0.
0.0 -0.00363034311983  0.
3.09879382797e-05 -0.000946600206143  0.
8.26303484945e-05 -0.00178761112688  0.
0.000127372554715 -0.00248723049518  0.
-9.83837274658e-06 -0.00441585791732  0.
-1.83702668917e-05 -0.00441467890476  0.
-2.12632309667e-05 -0.00441482047749  0.
3.97506127237e-06 -0.0037682933089  0.
2.48262474622e-06 -0.00389420907438  0.
4.16833148163e-06 -0.00400385384303  0.
2.47668251456e-05 -0.00297811793596  0.
4.0555412949e-05 -0.00328435294493  0.
5.66637234488e-05 -0.00353610546164  0.
4.05563962754e-05 -0.00202836572594  0.
7.67158412573e-05 -0.00257478302033  0.
0.000104276326193 -0.0030233102933  0.
0.0 0.0  0.
0.0 -0.00441927581457  0.
0.0 -0.00140828662884  0.
0.0 -0.00263037513926  0.
0.0 -0.00363034311983  0.
9.83837274658e-06 -0.00441585791732  0.
1.83702668917e-05 -0.00441467890476  0.
2.12632309667e-05 -0.00441482047749  0.
-3.09879382797e-05 -0.000946600206143  0.
-8.26303484945e-05 -0.00178761112688  0.
-0.000127372554715 -0.00248723049518  0.
-4.05563962754e-05 -0.00202836572594  0.
-7.67158412572e-05 -0.00257478302033  0.
-0.000104276326193 -0.0030233102933  0.
-2.47668251456e-05 -0.00297811793596  0.
-4.0555412949e-05 -0.00328435294493  0.
-5.66637234488e-05 -0.00353610546164  0.
-3.97506127237e-06 -0.0037682933089  0.
-2.48262474622e-06 -0.00389420907438  0.
-4.16833148162e-06 -0.00400385384303  0.
0.0 -0.00588584266177  0.
0.0 -0.00577235342141  0.
0.0 -0.00548768375808  0.
0.0 -0.0050348291127  0.
-3.24198089271e-05 -0.00584281041665  0.
-4.75744753429e-05 -0.00575781925189  0.
-6.69593719427e-05 -0.00562483999959  0.
3.39086659931e-06 -0.00494444319116  0.
7.02388288045e-06 -0.00486054772157  0.
5.30058888605e-06 -0.00478371084478  0.
-1.13395001699e-05 -0.00536255915942  0.
-1.92330353078e-05 -0.00523842840727  0.
-3.07175452577e-05 -0.00511469990115  0.
-2.19096216898e-05 -0.00566406889227  0.
-3.79742608087e-05 -0.00554025746111  0.
-5.69326009931e-05 -0.00539811156556  0.
0.0 -0.00588584266177  0.
3.24198089271e-05 -0.00584281041665  0.
4.75744753429e-05 -0.00575781925189  0.
6.69593719427e-05 -0.00562483999959  0.
0.0 -0.00577235342141  0.
0.0 -0.00548768375808  0.
0.0 -0.0050348291127  0.
-5.30058888605e-06 -0.00478371084478  0.
-7.02388288046e-06 -0.00486054772157  0.
-3.39086659931e-06 -0.00494444319116  0.
3.07175452577e-05 -0.00511469990115  0.
1.92330353078e-05 -0.00523842840727  0.
1.13395001699e-05 -0.00536255915942  0.
5.6932600993e-05 -0.00539811156556  0.
3.79742608087e-05 -0.00554025746111  0.
2.19096216898e-05 -0.00566406889227  0.
0.0 0.0  0.
0.0 0.0  0.
0.0 0.0  0.
0.0 0.0  0.
-1.18226637266e-18 -0.000830950560199  0.
-1.43541097013e-18 -0.00153049436571  0.
-5.60857068773e-19 -0.00208268370325  0.
6.4559308876e-05 -0.000921423283599  0.
0.000117452000995 -0.00172549631392  0.
0.000155904195026 -0.00237737174084  0.
7.55723153094e-05 -0.000888712687064  0.
0.000120013185167 -0.00164727265702  0.
0.000150509276454 -0.00225283973589  0.
5.44163853755e-05 -0.000849585598094  0.
7.99070026608e-05 -0.00156701608492  0.
9.76436288532e-05 -0.00213438365765  0.
0.0 0.0  0.
0.0 0.0  0.
0.0 0.0  0.
-5.44163853755e-05 -0.000849585598094  0.
-7.99070026608e-05 -0.00156701608492  0.
-9.76436288532e-05 -0.00213438365765  0.
-7.55723153094e-05 -0.000888712687064  0.
-0.000120013185167 -0.00164727265702  0.
-0.000150509276454 -0.00225283973589  0.
-6.4559308876e-05 -0.000921423283599  0.
-0.000117452000995 -0.00172549631392  0.
-0.000155904195026 -0.00237737174084  0.
3.92277526043e-19 -0.00617266070697  0.
-6.85033479761e-05 -0.00591214394233  0.
-0.000111769550753 -0.00600182969702  0.
-9.04319028361e-05 -0.00611673162638  0.
-7.31054922921e-19 -0.00616564194498  0.
-2.20520771715e-18 -0.00609842903142  0.
-3.91355677436e-18 -0.00600113200626  0.
-6.18264657441e-05 -0.00595405669286  0.
-4.90624934562e-05 -0.00605297107472  0.
-4.99103873551e-05 -0.00611550363194  0.
-9.07244377444e-05 -0.00584314567283  0.
-7.03148923592e-05 -0.00594753889157  0.
-7.10673251973e-05 -0.00600479645247  0.
-8.65541743506e-05 -0.00572264493013  0.
-6.46718433215e-05 -0.00583768332008  0.
-6.10628835561e-05 -0.00590177309467  0.
6.85033479761e-05 -0.00591214394233  0.
0.000111769550753 -0.00600182969702  0.
9.04319028361e-05 -0.00611673162638  0.
4.99103873551e-05 -0.00611550363194  0.
4.90624934562e-05 -0.00605297107472  0.
6.18264657441e-05 -0.00595405669286  0.
7.10673251973e-05 -0.00600479645247  0.
7.03148923592e-05 -0.00594753889157  0.
9.07244377444e-05 -0.00584314567283  0.
6.10628835561e-05 -0.00590177309467  0.
6.46718433215e-05 -0.00583768332008  0.
8.65541743505e-05 -0.00572264493013  0.
</DataArray>
<DataArray type="Float64" Name="stresses" NumberOfComponents="4" format="ascii" >
-36975.9049183 -3063.66937579 -12011.8722882 6.11180439591e-10  
-75198.8319662 -104806.182673 -59433.1643108 58643.9314866  
-42730.1624172 -8407.34065888 -15341.2509228 13012.674976  
-55749.8943529 -28697.2517426 -25334.1438287 30635.3037038  
-69577.0118984 -64344.2985451 -41093.3709329 48732.376955  
0.0 0.0 0.0 0.0  
0.0 0.0 0.0 0.0  
0.0 0.0 0.0 0.0  
0.0 0.0 0.0 0.0  
0.0 0.0 0.0 0.0  
0.0 0.0 0.0 0.0  
0.0 0.0 0.0 0.0  
0.0 0.0 0.0 0.0  
0.0 0.0 0.0 0.0  
0.0 0.0 0.0 0.0  
0.0 0.0 0.0 0.0  
0.0 0.0 0.0 0.0  
0.0 0.0 0.0 0.0  
0.0 0.0 0.0 0.0  
0.0 0.0 0.0 0.0  
0.0 0.0 0.0 0.0  
0.0 0.0 0.0 0.0  
0.0 0.0 0.0 0.0  
0.0 0.0 0.0 0.0  
0.0 0.0 0.0 0.0  
-75198.8319662 -104806.182673 -59433.1643108 -58643.9314866  
-42730.1624172 -8407.34065888 -15341.2509228 -13012.674976  
-55749.8943529 -28697.2517426 -25334.1438287 -30635.3037038  
-69577.0118984 -64344.2985451 -41093.3709329 -48732.376955  
0.0 0.0 0.0 0.0  
0.0 0.0 0.0 0.0  
0.0 0.0 0.0 0.0  
0.0 0.0 0.0 0.0  
0.0 0.0 0.0 0.0  
0.0 0.0 0.0 0.0  
0.0 0.0 0.0 0.0  
0.0 0.0 0.0 0.0  
0.0 0.0 0.0 0.0  
0.0 0.0 0.0 0.0  
0.0 0.0 0.0 0.0  
0.0 0.0 0.0 0.0  
0.0 0.0 0.0 0.0  
0.0 0.0 0.0 0.0  
0.0 0.0 0.0 0.0  
0.0 0.0 0.0 0.0  
0.0 0.0 0.0 0.0  
0.0 0.0 0.0 0.0  
0.0 0.0 0.0 0.0  
0.0 0.0 0.0 0.0  
0.0 0.0 0.0 0.0  
-91983.5998401 -129276.020775 -76599.3836086 68955.1151037  
0.0 0.0 0.0 0.0  
0.0 0.0 0.0 0.0  
0.0 0.0 0.0 0.0  
-63062.2138967 -10666.1161476 -22118.4990133 1.58252078108e-10  
-69185.7265093 -17933.7994864 -26135.8577987 18554.2071276  
-83370.5959015 -43553.1337963 -38645.6915015 40500.0853051  
-93286.2539768 -84559.5608942 -58198.0014788 58397.4820263  
0.0 0.0 0.0 0.0  
0.0 0.0 0.0 0.0  
0.0 0.0 0.0 0.0  
0.0 0.0 0.0 0.0  
0.0 0.0 0.0 0.0  
0.0 0.0 0.0 0.0  
0.0 0.0 0.0 0.0  
0.0 0.0 0.0 0.0  
0.0 0.0 0.0 0.0  
0.0 0.0 0.0 0.0  
0.0 0.0 0.0 0.0  
0.0 0.0 0.0 0.0  
-91983.5998401 -129276.020775 -76599.3836086 -68955.1151037  
-69185.7265092 -17933.7994864 -26135.8577987 -18554.2071276  
-83370.5959014 -43553.1337963 -38645.6915014 -40500.0853051  
-93286.2539768 -84559.5608942 -58198.0014788 -58397.4820263  
0.0 0.0 0.0 0.0  
0.0 0.0 0.0 0.0  
0.0 0.0 0.0 0.0  
0.0 0.0 0.0 0.0  
0.0 0.0 0.0 0.0  
0.0 0.0 0.0 0.0  
0.0 0.0 0.0 0.0  
0.0 0.0 0.0 0.0  
0.0 0.0 0.0 0.0  
0.0 0.0 0.0 0.0  
0.0 0.0 0.0 0.0  
0.0 0.0 0.0 0.0  
0.0 0.0 0.0 0.0  
0.0 0.0 0.0 0.0  
0.0 0.0 0.0 0.0  
0.0 0.0 0.0 0.0  
0.0 0.0 0.0 0.0  
0.0 0.0 0.0 0.0  
0.0 0.0 0.0 0.0  
0.0 0.0 0.0 0.0  
-52137.8991244 -274350.581573 -120718.836315 -562.889107076  
-60825.1101225 -264922.384927 -120350.601116 -41404.8900676  
-75512.6842681 -226372.502974 -110546.182105 -67593.086087  
-83324.4863316 -171835.789403 -91584.8411661 -74726.1706423  
0.0 0.0 0.0 0.0  
0.0 0.0 0.0 0.0  
0.0 0.0 0.0 0.0  
0.0 0.0 0.0 0.0  
0.0 0.0 0.0 0.0  
0.0 0.0 0.0 0.0  
0.0 0.0 0.0 0.0  
0.0 0.0 0.0 0.0  
0.0 0.0 0.0 0.0  
0.0 0.0 0.0 0.0  
0.0 0.0 0.0 0.0  
0.0 0.0 0.0 0.0  
-57935.3237412 -250696.325696 -113286.822386 38439.9642184  
-69210.0907986 -203400.242911 -98359.0400088 60881.9895119  
-73781.9667862 -147407.880991 -77256.4426956 65203.8156747  
0.0 0.0 0.0 0.0  
0.0 0.0 0.0 0.0  
0.0 0.0 0.0 0.0  
0.0 0.0 0.0 0.0  
0.0 0.0 0.0 0.0  
0.0 0.0 0.0 0.0  
0.0 0.0 0.0 0.0  
0.0 0.0 0.0 0.0  
0.0 0.0 0.0 0.0  
0.0 0.0 0.0 0.0  
0.0 0.0 0.0 0.0  
0.0 0.0 0.0 0.0  
-52137.8991244 -274350.581573 -120718.836315 562.889107077  
-60825.1101225 -264922.384927 -120350.601116 41404.8900676  
-75512.6842681 -226372.502974 -110546.182105 67593.086087  
-83324.4863316 -171835.789403 -91584.8411661 74726.1706423  
0.0 0.0 0.0 0.0  
0.0 0.0 0.0 0.0  
0.0 0.0 0.0 0.0  
0.0 0.0 0.0 0.0  
0.0 0.0 0.0 0.0  
0.0 0.0 0.0 0.0  
0.0 0.0 0.0 0.0  
0.0 0.0 0.0 0.0  
0.0 0.0 0.0 0.0  
0.0 0.0 0.0 0.0  
0.0 0.0 0.0 0.0  
0.0 0.0 0.0 0.0  
0.0 0.0 0.0 0.0  
0.0 0.0 0.0 0.0  
0.0 0.0 0.0 0.0  
0.0 0.0 0.0 0.0  
-57935.3237412 -250696.325696 -113286.822386 -38439.9642184  
-69210.0907986 -203400.242911 -98359.0400088 -60881.9895119  
-73781.9667862 -147407.880991 -77256.4426956 -65203.8156747  
0.0 0.0 0.0 0.0  
0.0 0.0 0.0 0.0  
0.0 0.0 0.0 0.0  
0.0 0.0 0.0 0.0  
0.0 0.0 0.0 0.0  
0.0 0.0 0.0 0.0  
0.0 0.0 0.0 0.0  
0.0 0.0 0.0 0.0  
0.0 0.0 0.0 0.0  
0.0 0.0 0.0 0.0  
0.0 0.0 0.0 0.0  
0.0 0.0 0.0 0.0  
0.0 0.0 0.0 0.0  
0.0 0.0 0.0 0.0  
0.0 0.0 0.0 0.0  
0.0 0.0 0.0 0.0  
0.0 0.0 0.0 0.0  
0.0 0.0 0.0 0.0  
0.0 0.0 0.0 0.0  
0.0 0.0 0.0 0.0  
0.0 0.0 0.0 0.0  
0.0 0.0 0.0 0.0  
0.0 0.0 0.0 0.0  
0.0 0.0 0.0 0.0  
0.0 0.0 0.0 0.0  
0.0 0.0 0.0 0.0  
0.0 0.0 0.0 0.0  
0.0 0.0 0.0 0.0  
0.0 0.0 0.0 0.0  
0.0 0.0 0.0 0.0  
0.0 0.0 0.0 0.0  
0.0 0.0 0.0 0.0  
0.0 0.0 0.0 0.0  
0.0 0.0 0.0 0.0  
0.0 0.0 0.0 0.0  
0.0 0.0 0.0 0.0  
0.0 0.0 0.0 0.0  
0.0 0.0 0.0 0.0  
0.0 0.0 0.0 0.0  
0.0 0.0 0.0 0.0  
0.0 0.0 0.0 0.0  
0.0 0.0 0.0 0.0  
0.0 0.0 0.0 0.0  
0.0 0.0 0.0 0.0  
0.0 0.0 0.0 0.0  
0.0 0.0 0.0 0.0  
0.0 0.0 0.0 0.0  
0.0 0.0 0.0 0.0  
0.0 0.0 0.0 0.0  
0.0 0.0 0.0 0.0  
0.0 0.0 0.0 0.0  
0.0 0.0 0.0 0.0  
0.0 0.0 0.0 0.0  
0.0 0.0 0.0 0.0  
0.0 0.0 0.0 0.0  
0.0 0.0 0.0 0.0  
0.0 0.0 0.0 0.0  
0.0 0.0 0.0 0.0  
0.0 0.0 0.0 0.0  
0.0 0.0 0.0 0.0  
0.0 0.0 0.0 0.0  
-68332.0967104 -172234.520885 -78101.3152487 18225.6801461  
-90686.6926802 -90758.7853622 -55673.3534057 -1.72349245986e-10  
-66753.4972325 -153699.439513 -69224.939299 26813.7496953  
-73784.0447239 -130437.138293 -62079.6222727 30872.2781987  
-85361.6128132 -103164.238645 -57778.2007103 21395.4596427  
-79770.8913815 -24752.6008569 -31357.0476715 1.7462298274e-10  
-83127.7952479 -41878.6509674 -37501.9338646 5.44787326362e-10  
-83628.5753541 -59237.1941037 -42916.2321606 2.53294274444e-10  
-61443.9564271 -161714.889568 -72728.2414723 26450.5435994  
-59174.2577848 -151043.042227 -69203.9436731 36889.6871973  
-59939.5556211 -128421.130507 -63416.6627766 53648.1547996  
-58226.1362368 -132137.693964 -59042.5727736 34957.6662695  
-57312.1063345 -114892.859588 -53722.4000457 43099.7740544  
-63860.0515518 -90179.8820435 -48890.2445284 51980.2470676  
-66932.8177605 -101987.499115 -50432.7787623 36986.0703153  
-68300.2381511 -82819.8520974 -45176.5018924 41425.5579691  
-73475.8107138 -58254.5375736 -39499.6312821 42812.6605093  
-78409.9616952 -72026.5381535 -45178.8753717 23990.7304699  
-78735.1674906 -53628.4122858 -39709.0739329 25122.2895378  
-78282.0193897 -33667.5419403 -33584.868399 23337.4906921  
-68332.0967104 -172234.520885 -78101.3152487 -18225.6801461  
-66753.4972325 -153699.439513 -69224.939299 -26813.7496953  
-73784.0447239 -130437.138293 -62079.6222727 -30872.2781987  
-85361.6128132 -103164.238645 -57778.2007103 -21395.4596427  
-61443.9564271 -161714.889568 -72728.2414723 -26450.5435994  
-59174.2577848 -151043.042227 -69203.9436731 -36889.6871973  
-59939.5556212 -128421.130507 -63416.6627766 -53648.1547996  
-78409.9616952 -72026.5381535 -45178.8753717 -23990.7304699  
-78735.1674906 -53628.4122858 -39709.0739329 -25122.2895378  
-78282.0193897 -33667.5419403 -33584.868399 -23337.4906921  
-66932.8177605 -101987.499115 -50432.7787623 -36986.0703153  
-68300.2381511 -82819.8520974 -45176.5018924 -41425.5579691  
-73475.8107138 -58254.5375736 -39499.6312821 -42812.6605093  
-58226.1362368 -132137.693964 -59042.5727736 -34957.6662695  
-57312.1063345 -114892.859588 -53722.4000457 -43099.7740544  
-63860.0515518 -90179.8820435 -48890.2445284 -51980.2470676  
-31280.1158809 -100104.355769 -39415.3414949 18713.9491732  
-31759.4017634 -105579.405045 -41201.6420424 24372.2217037  
-33160.9838397 -106213.24401 -41973.998372 32791.4068622  
-39632.2492412 -96560.5925939 -42596.579757 46033.3489775  
-47256.0417372 -31556.9705671 -23643.9036913 2.57614374277e-10  
-29706.8946072 -78820.954584 -32558.3547574 22421.3300192  
-35288.1873437 -60740.1972724 -28808.5153849 24434.0631105  
-43323.6761606 -40930.5271345 -25276.2609885 16986.2373381  
-50949.4264606 -10808.3788967 -18527.3416072 4.24279278377e-10  
-51360.956053 -16307.4366702 -20300.517817 4.84305928694e-10  
-49186.0509187 -22442.9864655 -21488.7112152 4.19731804868e-10  
-50465.6863031 -17612.9537907 -20423.5920281 17424.1240843  
-48212.9917145 -25385.8183949 -22079.6430328 19301.7405932  
-45351.0598065 -32383.2089629 -23320.2806308 18703.9053282  
-47911.3350751 -36861.1425109 -25431.7432758 32194.316364  
-40915.0768549 -47926.9934317 -26652.621086 31604.4664658  
-37231.721065 -54869.8664401 -27630.4762515 28508.8649501  
-40963.929012 -63207.393332 -31005.0898354 42278.2493001  
-32728.4586077 -73651.7974729 -31934.1025902 34513.2646033  
-30683.6266859 -78161.0276661 -32653.3963056 28277.8633534  
-31280.1158809 -100104.355769 -39415.3414949 -18713.9491732  
-29706.8946072 -78820.954584 -32558.3547574 -22421.3300192  
-35288.1873437 -60740.1972724 -28808.5153849 -24434.0631105  
-43323.6761606 -40930.5271345 -25276.2609885 -16986.2373381  
-31759.4017634 -105579.405045 -41201.6420424 -24372.2217037  
-33160.9838397 -106213.24401 -41973.998372 -32791.4068622  
-39632.2492412 -96560.5925939 -42596.579757 -46033.3489775  
-40963.929012 -63207.393332 -31005.0898354 -42278.2493001  
-32728.4586077 -73651.7974729 -31934.1025902 -34513.2646033  
-30683.6266859 -78161.0276661 -32653.3963056 -28277.8633534  
-47911.3350751 -36861.1425109 -25431.7432758 -32194.316364  
-40915.0768549 -47926.9934317 -26652.621086 -31604.4664658  
-37231.721065 -54869.8664401 -27630.4762515 -28508.8649501  
-50465.6863031 -17612.9537907 -20423.5920281 -17424.1240843  
-48212.9917145 -25385.8183949 -22079.6430328 -19301.7405932  
-45351.0598065 -32383.2089629 -23320.2806308 -18703.9053282  
-57598.3622273 -162362.730993 -69386.9489226 174.692385125  
-59372.1914886 -166734.235399 -73433.9577529 15591.7144321  
-57467.2863532 -168100.689846 -73493.8622451 11690.1243389  
-58672.0947765 -167779.384667 -73030.2668391 6123.96028072  
-18127.314697 -195330.666409 -76367.7899827 1395.96765574  
-37811.1676194 -179609.942916 -74851.3470068 1432.69958256  
-48022.9934053 -168708.476285 -71700.4501172 1126.33688141  
-49927.418527 -171563.769217 -73955.8692914 12326.2899033  
-41433.9564807 -179526.146236 -76251.0742417 18026.7658017  
-23537.781406 -190290.799097 -76449.0967768 28212.5044052  
-51259.3135484 -167573.246449 -72935.0523392 20079.0731168  
-45841.9985979 -169505.388725 -73639.5486311 29128.510168  
-33780.5646594 -169384.893763 -71834.1718979 46192.807483  
-53168.4855491 -161105.681177 -70582.7509589 24121.701074  
-49721.3208343 -156528.533008 -69215.0636741 34252.6844036  
-44179.0807011 -144536.384969 -65334.2814255 53300.3465115  
-57598.3622273 -162362.730993 -69386.9489226 -174.692385125  
-59372.1914886 -166734.235399 -73433.9577529 -15591.7144321  
-57467.2863532 -168100.689846 -73493.8622451 -11690.1243389  
-58672.0947765 -167779.384667 -73030.2668391 -6123.96028073  
-18127.314697 -195330.666409 -76367.7899827 -1395.96765574  
-37811.1676194 -179609.942916 -74851.3470068 -1432.69958256  
-48022.9934053 -168708.476285 -71700.4501172 -1126.33688141  
-53168.4855491 -161105.681177 -70582.7509589 -24121.701074  
-49721.3208343 -156528.533008 -69215.0636741 -34252.6844036  
-44179.0807011 -144536.384969 -65334.2814255 -53300.3465115  
-51259.3135484 -167573.246449 -72935.0523392 -20079.0731168  
-45841.998598 -169505.388725 -73639.5486311 -29128.510168  