<?xml version="1.0"?>
<VTKFile type="UnstructuredGrid" version="0.1" byte_order="LittleEndian" compressor="vtkZLibDataCompressor">
<UnstructuredGrid>
<Piece NumberOfPoints="465" NumberOfCells="448">
<PointData>
<DataArray type="Float64" Name="displacement" NumberOfComponents="3" format="ascii" >
-1.25260606394e-19 -9.49370217915e-05  0.
-2.11903534042e-07 -9.49318285286e-05  0.
-5.56302381286e-08 -9.49358082023e-05  0.
-1.10170920068e-07 -9.4932937432e-05  0.
-1.62499054103e-07 -9.49305141605e-05  0.
-5.45804787435e-20 -9.51636506556e-05  0.
-7.92434890923e-20 -9.49885339235e-05  0.
-1.29238331359e-20 -9.50434594022e-05  0.
-1.87690796506e-19 -9.51018383144e-05  0.
-1.61655695676e-07 -9.50886926119e-05  0.
-1.22501000467e-07 -9.51215303887e-05  0.
-8.22184258489e-08 -9.51448767327e-05  0.
-4.12743050896e-08 -9.51589505098e-05  0.
-1.75632784054e-07 -9.50493737338e-05  0.
-1.88614421011e-07 -9.50101463969e-05  0.
-2.00610288634e-07 -9.49710413531e-05  0.
-1.54529155149e-07 -9.49759786556e-05  0.
-1.45142721127e-07 -9.50230195691e-05  0.
-1.34495473464e-07 -9.5071544912e-05  0.
-1.04889388856e-07 -9.49821071708e-05  0.
-9.85142203626e-08 -9.50338681418e-05  0.
-9.09379775192e-08 -9.50881759375e-05  0.
-5.30127919111e-08 -9.49867987148e-05  0.
-4.97712476266e-08 -9.50409851941e-05  0.
-4.58564976338e-08 -9.5098384083e-05  0.
2.11903534041e-07 -9.49318285286e-05  0.
5.56302381286e-08 -9.49358082023e-05  0.
1.10170920067e-07 -9.4932937432e-05  0.
1.62499054103e-07 -9.49305141605e-05  0.
1.61655695676e-07 -9.50886926119e-05  0.
2.00610288634e-07 -9.49710413531e-05  0.
1.88614421011e-07 -9.50101463969e-05  0.
1.75632784054e-07 -9.50493737338e-05  0.
1.22501000467e-07 -9.51215303887e-05  0.
8.22184258487e-08 -9.51448767327e-05  0.
4.12743050895e-08 -9.51589505098e-05  0.
5.30127919108e-08 -9.49867987148e-05  0.
4.97712476265e-08 -9.50409851941e-05  0.
4.58564976337e-08 -9.5098384083e-05  0.
1.04889388856e-07 -9.49821071708e-05  0.
9.85142203624e-08 -9.50338681418e-05  0.
9.0937977519e-08 -9.50881759375e-05  0.
1.54529155149e-07 -9.49759786556e-05  0.
1.45142721126e-07 -9.50230195691e-05  0.
1.34495473464e-07 -9.5071544912e-05  0.
1.11214737582e-07 -9.56513162107e-05  0.
-2.08038819189e-19 -9.57631834727e-05  0.
8.27432217212e-08 -9.57006356976e-05  0.
5.4895486524e-08 -9.57354001408e-05  0.
2.73652146985e-08 -9.57562397277e-05  0.
9.2554091995e-08 -9.56677826949e-05  0.
1.11852517899e-07 -9.56600652672e-05  0.
1.08924830414e-07 -9.56654915016e-05  0.
1.02430868626e-07 -9.56678787842e-05  0.
-6.42944225683e-20 -9.60654816302e-05  0.
-2.45657121325e-08 -9.60378495632e-05  0.
-2.36531869864e-08 -9.59570788367e-05  0.
1.66439098777e-08 -9.58295980875e-05  0.
-4.16361361329e-20 -9.59965118603e-05  0.
-1.2412755125e-20 -9.59218843116e-05  0.
-1.26571713514e-19 -9.58435741278e-05  0.
2.28388560644e-08 -9.58313251761e-05  0.
1.3704937573e-08 -9.59042967198e-05  0.
-1.50534150938e-09 -9.59737189835e-05  0.
4.80101208478e-08 -9.5795215749e-05  0.
3.40922671834e-08 -9.5852736232e-05  0.
1.10060137191e-08 -9.5907115051e-05  0.
7.73104469914e-08 -9.57369068511e-05  0.
6.56691887566e-08 -9.57709885214e-05  0.
4.60378313693e-08 -9.5802045489e-05  0.
-9.25540919951e-08 -9.56677826949e-05  0.
2.45657121324e-08 -9.60378495632e-05  0.
2.36531869864e-08 -9.59570788367e-05  0.
-1.66439098778e-08 -9.58295980875e-05  0.
-1.11214737582e-07 -9.56513162107e-05  0.
-1.11852517899e-07 -9.56600652672e-05  0.
-1.08924830414e-07 -9.56654915016e-05  0.
-1.02430868626e-07 -9.56678787842e-05  0.
-8.27432217214e-08 -9.57006356976e-05  0.
-5.48954865241e-08 -9.57354001408e-05  0.
-2.73652146989e-08 -9.57562397277e-05  0.
1.50534150939e-09 -9.59737189835e-05  0.
-1.37049375731e-08 -9.59042967198e-05  0.
-2.28388560646e-08 -9.58313251761e-05  0.
-1.10060137191e-08 -9.5907115051e-05  0.
-3.40922671834e-08 -9.5852736232e-05  0.
-4.80101208481e-08 -9.5795215749e-05  0.
-4.60378313695e-08 -9.5802045489e-05  0.
-6.56691887569e-08 -9.57709885214e-05  0.
-7.73104469915e-08 -9.57369068511e-05  0.
-1.64543351224e-07 -9.5350881814e-05  0.
-1.33157183441e-07 -9.5574362789e-05  0.
-1.48424515496e-07 -9.54981291022e-05  0.
-1.5853938018e-07 -9.54234350279e-05  0.
-3.14818116368e-07 -9.50795294151e-05  0.
-2.95964417576e-07 -9.51837447331e-05  0.
-2.4936319104e-07 -9.5323028506e-05  0.
-1.77077439071e-07 -9.54898838635e-05  0.
-2.7972323602e-07 -9.51623341993e-05  0.
-2.42685546555e-07 -9.52355821962e-05  0.
-2.04176002884e-07 -9.52986130514e-05  0.
-1.94553426931e-07 -9.53806332078e-05  0.
-2.29537587076e-07 -9.53263435759e-05  0.
-2.63387636716e-07 -9.52606863575e-05  0.
-1.7584870566e-07 -9.54694988743e-05  0.
-2.01758170658e-07 -9.54308980088e-05  0.
-2.26253531408e-07 -9.53821239696e-05  0.
-1.47801209375e-07 -9.55634109421e-05  0.
-1.60228165805e-07 -9.55458761285e-05  0.
-1.69977423768e-07 -9.55213721051e-05  0.
-3.10616154286e-07 -9.50088795784e-05  0.
-2.89006665486e-07 -9.49655841192e-05  0.
-2.54896192653e-07 -9.49422795255e-05  0.
-1.65302543357e-07 -9.51497294764e-05  0.
-1.67304199451e-07 -9.52137843822e-05  0.
-1.67246330174e-07 -9.5280896046e-05  0.
-2.77838978152e-07 -9.50875073058e-05  0.
-2.42679282528e-07 -9.5159693388e-05  0.
-2.05658911463e-07 -9.52244455705e-05  0.
-2.61639314646e-07 -9.50334149858e-05  0.
-2.31949139193e-07 -9.50979798152e-05  0.
-2.00380838806e-07 -9.51584010766e-05  0.
-2.3486575165e-07 -9.49958353023e-05  0.
-2.13102218918e-07 -9.50487677375e-05  0.
-1.89848465317e-07 -9.51002246284e-05  0.
3.14818116368e-07 -9.50795294151e-05  0.
2.95964417576e-07 -9.51837447331e-05  0.
2.4936319104e-07 -9.5323028506e-05  0.
1.77077439071e-07 -9.54898838635e-05  0.
1.64543351223e-07 -9.5350881814e-05  0.
1.33157183441e-07 -9.5574362789e-05  0.
1.48424515496e-07 -9.54981291022e-05  0.
1.5853938018e-07 -9.54234350279e-05  0.
2.7972323602e-07 -9.51623341993e-05  0.
2.42685546554e-07 -9.52355821962e-05  0.
2.04176002884e-07 -9.52986130514e-05  0.
2.63387636716e-07 -9.52606863575e-05  0.
2.29537587076e-07 -9.53263435759e-05  0.
1.94553426931e-07 -9.53806332078e-05  0.
2.26253531408e-07 -9.53821239696e-05  0.
2.01758170658e-07 -9.54308980088e-05  0.
1.7584870566e-07 -9.54694988743e-05  0.
1.69977423768e-07 -9.55213721051e-05  0.
1.60228165805e-07 -9.55458761285e-05  0.
1.47801209375e-07 -9.55634109421e-05  0.
3.10616154286e-07 -9.50088795784e-05  0.
2.89006665485e-07 -9.49655841192e-05  0.
2.54896192653e-07 -9.49422795255e-05  0.
1.65302543357e-07 -9.51497294764e-05  0.
1.67304199451e-07 -9.52137843822e-05  0.
1.67246330174e-07 -9.5280896046e-05  0.
2.3486575165e-07 -9.49958353023e-05  0.
2.13102218917e-07 -9.50487677375e-05  0.
1.89848465317e-07 -9.51002246284e-05  0.
2.61639314645e-07 -9.50334149858e-05  0.
2.31949139193e-07 -9.50979798152e-05  0.
2.00380838806e-07 -9.51584010766e-05  0.
2.77838978152e-07 -9.50875073058e-05  0.
2.42679282527e-07 -9.5159693388e-05  0.
2.05658911463e-07 -9.52244455705e-05  0.
9.95313158091e-08 -9.56215623874e-05  0.
1.11418266912e-07 -9.55432096525e-05  0.
1.19342107628e-07 -9.54664025068e-05  0.
1.24091037283e-07 -9.53917133075e-05  0.
1.26293646463e-07 -9.53195849662e-05  0.
1.26467761478e-07 -9.52503486779e-05  0.
1.25026642838e-07 -9.51842442395e-05  0.
6.61231756874e-08 -9.56553056274e-05  0.
7.42778807567e-08 -9.55756555033e-05  0.
7.97478100209e-08 -9.54973924925e-05  0.
8.30446737625e-08 -9.54211840527e-05  0.
8.46046990461e-08 -9.53475184926e-05  0.
8.47856501512e-08 -9.52767573188e-05  0.
8.3911581523e-08 -9.5209170885e-05  0.
3.29972826092e-08 -9.56755140262e-05  0.
3.71260605574e-08 -9.55951673337e-05  0.
3.9922686276e-08 -9.55160836203e-05  0.
4.16149327229e-08 -9.54389816664e-05  0.
4.24247071852e-08 -9.53643940855e-05  0.
4.25420239785e-08 -9.52927053051e-05  0.
4.21220534773e-08 -9.52241698663e-05  0.
-1.3661880433e-19 -9.56822521298e-05  0.
-1.53064188884e-19 -9.56016741049e-05  0.
-1.66215533443e-19 -9.55223272396e-05  0.
-8.03650426053e-20 -9.54449321288e-05  0.
-9.32896362789e-20 -9.53700379377e-05  0.
-5.49297299078e-20 -9.52980340663e-05  0.
-1.12526046561e-19 -9.52291831086e-05  0.
-3.29972826094e-08 -9.56755140262e-05  0.
-3.71260605576e-08 -9.55951673337e-05  0.
-3.99226862762e-08 -9.55160836203e-05  0.
-4.16149327231e-08 -9.54389816664e-05  0.
-4.24247071855e-08 -9.53643940855e-05  0.
-4.25420239787e-08 -9.52927053051e-05  0.
-4.21220534776e-08 -9.52241698663e-05  0.
-6.61231756875e-08 -9.56553056275e-05  0.
-7.4277880757e-08 -9.55756555033e-05  0.
-7.97478100211e-08 -9.54973924925e-05  0.
-8.30446737628e-08 -9.54211840527e-05  0.
-8.46046990463e-08 -9.53475184926e-05  0.
-8.47856501512e-08 -9.52767573188e-05  0.
-8.39115815233e-08 -9.5209170885e-05  0.
-9.95313158092e-08 -9.56215623874e-05  0.
-1.11418266912e-07 -9.55432096525e-05  0.
-1.19342107628e-07 -9.54664025068e-05  0.
-1.24091037283e-07 -9.53917133075e-05  0.
-1.26293646464e-07 -9.53195849662e-05  0.
-1.26467761478e-07 -9.52503486779e-05  0.
-1.25026642839e-07 -9.51842442395e-05  0.
-1.58311522618e-06 -9.52751668419e-05  0.
1.43480396759e-19 -9.61431623091e-05  0.
-1.30491156915e-06 -9.56038851423e-05  0.
-9.25085562757e-07 -9.58781239746e-05  0.
-4.83375139425e-07 -9.60711532587e-05  0.
-3.35221208686e-21 -9.61443565864e-05  0.
1.2852298088e-19 -9.62042382223e-05  0.
1.46286696085e-19 -9.62402769952e-05  0.
-7.7449107103e-07 -9.53682040512e-05  0.
-2.88658831127e-07 -9.55162428334e-05  0.
-2.44345839591e-08 -9.56228750536e-05  0.
-7.66458750593e-07 -9.57358982508e-05  0.
-3.57405016776e-07 -9.5811381566e-05  0.
-1.10181639118e-07 -9.58416807342e-05  0.
-5.86190594843e-07 -9.60012771664e-05  0.
-3.09462598944e-07 -9.6023410527e-05  0.
-1.28160134951e-07 -9.60059976417e-05  0.
-3.13750653104e-07 -9.61775060726e-05  0.
-1.76581962941e-07 -9.61575454912e-05  0.
-8.26501058229e-08 -9.61089453477e-05  0.
1.58311522618e-06 -9.52751668419e-05  0.
1.30491156915e-06 -9.56038851423e-05  0.
9.25085562757e-07 -9.58781239746e-05  0.
4.83375139425e-07 -9.60711532587e-05  0.
7.7449107103e-07 -9.53682040512e-05  0.
2.88658831127e-07 -9.55162428334e-05  0.
2.4434583959e-08 -9.56228750536e-05  0.
3.13750653104e-07 -9.61775060726e-05  0.
1.76581962942e-07 -9.61575454912e-05  0.
8.2650105823e-08 -9.61089453477e-05  0.
5.86190594843e-07 -9.60012771664e-05  0.
3.09462598944e-07 -9.6023410527e-05  0.
1.28160134951e-07 -9.60059976417e-05  0.
7.66458750593e-07 -9.57358982508e-05  0.
3.57405016777e-07 -9.5811381566e-05  0.
1.10181639118e-07 -9.58416807342e-05  0.
-2.5267001567e-07 -9.43627204274e-05  0.
-2.66948911607e-07 -9.44719612193e-05  0.
-2.67646551245e-07 -9.46041917078e-05  0.
-2.50311712136e-07 -9.47586026001e-05  0.
-5.01084134938e-20 -9.47165380647e-05  0.
-2.18949285793e-07 -9.44978531462e-05  0.
-1.62892963292e-07 -9.46124329311e-05  0.
-8.70237025429e-08 -9.46893521253e-05  0.
3.68151982759e-20 -9.48741410586e-05  0.
-1.69647777223e-19 -9.48166806099e-05  0.
-1.62097789579e-19 -9.47642688451e-05  0.
-6.64648531677e-08 -9.48661129253e-05  0.
-7.52054407474e-08 -9.48019051167e-05  0.
-8.197644416e-08 -9.47430509564e-05  0.
-1.31234030071e-07 -9.48428298092e-05  0.
-1.46782563957e-07 -9.47589924582e-05  0.
-1.57110981783e-07 -9.46820676695e-05  0.
-1.92971224495e-07 -9.48062305143e-05  0.
-2.1170833899e-07 -9.46914771306e-05  0.
-2.20016531356e-07 -9.45884377733e-05  0.
2.5267001567e-07 -9.43627204274e-05  0.
2.18949285793e-07 -9.44978531462e-05  0.
1.62892963292e-07 -9.46124329311e-05  0.
8.70237025426e-08 -9.46893521253e-05  0.
2.66948911607e-07 -9.44719612193e-05  0.
2.67646551245e-07 -9.46041917078e-05  0.
2.50311712136e-07 -9.47586026001e-05  0.
1.92971224495e-07 -9.48062305143e-05  0.
2.1170833899e-07 -9.46914771306e-05  0.
2.20016531356e-07 -9.45884377733e-05  0.
1.31234030071e-07 -9.48428298092e-05  0.
1.46782563957e-07 -9.47589924582e-05  0.
1.57110981783e-07 -9.46820676695e-05  0.
6.64648531673e-08 -9.48661129253e-05  0.
7.52054407474e-08 -9.48019051167e-05  0.
8.19764441598e-08 -9.47430509564e-05  0.
4.41470239554e-07 -9.45310742163e-05  0.
-1.37431166323e-07 -9.47224363366e-05  0.
2.60311940746e-07 -9.46886438044e-05  0.
4.25080877913e-07 -9.45668710371e-05  0.
3.5747375242e-07 -9.49557480376e-05  0.
3.94164031844e-07 -9.48197978783e-05  0.
4.23556406222e-07 -9.46743984125e-05  0.
3.9946047316e-07 -9.4764868645e-05  0.
3.70564284917e-07 -9.49274021763e-05  0.
3.35627267388e-07 -9.50679136287e-05  0.
2.80656257071e-07 -9.48905706523e-05  0.
2.80686066978e-07 -9.50783213965e-05  0.
2.70238646114e-07 -9.52201644751e-05  0.
-9.57876594869e-09 -9.50896782155e-05  0.
8.76125867903e-08 -9.52786900037e-05  0.
1.50728725215e-07 -9.54106057495e-05  0.
-4.41470239555e-07 -9.45310742163e-05  0.
1.37431166324e-07 -9.47224363366e-05  0.
-2.60311940746e-07 -9.46886438044e-05  0.
-4.25080877913e-07 -9.45668710371e-05  0.
-3.5747375242e-07 -9.49557480376e-05  0.
-3.94164031845e-07 -9.48197978783e-05  0.
-4.23556406223e-07 -9.46743984125e-05  0.
9.57876594879e-09 -9.50896782155e-05  0.
-8.76125867903e-08 -9.52786900037e-05  0.
-1.50728725215e-07 -9.54106057495e-05  0.
-2.80656257071e-07 -9.48905706523e-05  0.
-2.80686066978e-07 -9.50783213965e-05  0.
-2.70238646114e-07 -9.52201644751e-05  0.
-3.9946047316e-07 -9.4764868645e-05  0.
-3.70564284917e-07 -9.49274021763e-05  0.
-3.35627267388e-07 -9.50679136287e-05  0.
-3.09068636197e-07 -9.4393148863e-05  0.
-3.70357952116e-07 -9.44310797387e-05  0.
-4.22252507089e-07 -9.44790409706e-05  0.
-4.05875755634e-07 -9.46088006335e-05  0.
-3.82726330839e-07 -9.4741938081e-05  0.
-3.50741009917e-07 -9.48769903554e-05  0.
-3.66316016052e-07 -9.45526744991e-05  0.
-3.51512149028e-07 -9.46838616162e-05  0.
-3.25882076491e-07 -9.48226466247e-05  0.
-3.16499415733e-07 -9.45076750598e-05  0.
-3.10868822189e-07 -9.46391223395e-05  0.
-2.90532517906e-07 -9.4785144071e-05  0.
3.09068636197e-07 -9.4393148863e-05  0.
3.70357952116e-07 -9.44310797387e-05  0.
4.22252507089e-07 -9.44790409706e-05  0.
3.16499415732e-07 -9.45076750598e-05  0.
3.10868822188e-07 -9.46391223395e-05  0.
2.90532517906e-07 -9.4785144071e-05  0.
3.66316016051e-07 -9.45526744991e-05  0.
3.51512149027e-07 -9.46838616162e-05  0.
3.25882076491e-07 -9.48226466247e-05  0.
4.05875755633e-07 -9.46088006335e-05  0.
3.82726330839e-07 -9.4741938081e-05  0.
3.50741009916e-07 -9.48769903554e-05  0.
0.0 0.0  0.
0.0 -9.33545221986e-05  0.
0.0 -5.64991822637e-05  0.
0.0 -8.72298752117e-05  0.
0.0 -9.29944694056e-05  0.
-1.0621141517e-06 -4.08282125806e-05  0.
-1.77298635033e-06 -6.99340616349e-05  0.
-2.01240900386e-06 -8.80488854753e-05  0.
1.10131012736e-07 -9.32621366519e-05  0.
3.96513874187e-07 -9.33677603407e-05  0.
4.6789245324e-07 -9.38730571559e-05  0.
9.54547515471e-07 -9.25298242856e-05  0.
6.38331720944e-07 -9.32342952019e-05  0.
4.11308237801e-07 -9.38017944819e-05  0.
-9.53866105671e-07 -9.18091072e-05  0.
-3.53963806555e-07 -9.33555001911e-05  0.
4.20499017666e-07 -9.35306857898e-05  0.
-5.52910851334e-07 -7.44074813317e-05  0.
-1.26589683852e-06 -8.69897683303e-05  0.
-1.41000047036e-06 -9.36934465589e-05  0.
0.0 0.0  0.
0.0 -9.33545221986e-05  0.
0.0 -5.64991822637e-05  0.
0.0 -8.72298752117e-05  0.
0.0 -9.29944694056e-05  0.
-1.10131012736e-07 -9.32621366519e-05  0.
-3.96513874187e-07 -9.33677603407e-05  0.
-4.6789245324e-07 -9.38730571559e-05  0.
1.0621141517e-06 -4.08282125806e-05  0.
1.77298635033e-06 -6.99340616349e-05  0.
2.01240900386e-06 -8.80488854753e-05  0.
5.52910851334e-07 -7.44074813317e-05  0.
1.26589683852e-06 -8.69897683303e-05  0.
1.41000047036e-06 -9.36934465589e-05  0.
9.53866105671e-07 -9.18091072e-05  0.
3.53963806556e-07 -9.33555001911e-05  0.
-4.20499017665e-07 -9.35306857898e-05  0.
-9.54547515471e-07 -9.25298242856e-05  0.
-6.38331720944e-07 -9.32342952019e-05  0.
-4.11308237801e-07 -9.38017944819e-05  0.
0.0 -9.38507120122e-05  0.
0.0 -9.38229378328e-05  0.
0.0 -9.37274763616e-05  0.
0.0 -9.35448078255e-05  0.
-5.77207023107e-08 -9.38797406952e-05  0.
-1.11973588595e-07 -9.39470073562e-05  0.
-1.87429302959e-07 -9.40852768198e-05  0.
-1.1901012377e-07 -9.35509983031e-05  0.
-2.53763248038e-07 -9.36385016814e-05  0.
-3.97667724073e-07 -9.39480861376e-05  0.
-8.75999494615e-08 -9.37178931427e-05  0.
-1.96883353355e-07 -9.37986213897e-05  0.
-3.09177888139e-07 -9.40169680355e-05  0.
-6.30029636765e-08 -9.38219393264e-05  0.
-1.45648882311e-07 -9.3891178262e-05  0.
-2.39343992937e-07 -9.40603755226e-05  0.
0.0 -9.38507120122e-05  0.
5.77207023107e-08 -9.38797406952e-05  0.
1.11973588595e-07 -9.39470073562e-05  0.
1.87429302958e-07 -9.40852768198e-05  0.
0.0 -9.38229378328e-05  0.
0.0 -9.37274763616e-05  0.
0.0 -9.35448078255e-05  0.
3.97667724073e-07 -9.39480861376e-05  0.
2.53763248038e-07 -9.36385016814e-05  0.
1.1901012377e-07 -9.35509983031e-05  0.
3.09177888138e-07 -9.40169680355e-05  0.
1.96883353355e-07 -9.37986213897e-05  0.
8.75999494614e-08 -9.37178931427e-05  0.
2.39343992936e-07 -9.40603755226e-05  0.
1.45648882311e-07 -9.3891178262e-05  0.
6.30029636765e-08 -9.38219393264e-05  0.
0.0 0.0  0.
0.0 0.0  0.
0.0 0.0  0.
0.0 0.0  0.
1.97324549048e-19 -3.99330239891e-05  0.
9.06814194852e-20 -6.92366364107e-05  0.
2.43354726756e-19 -8.80346230966e-05  0.
-7.037568842e-07 -4.03708900936e-05  0.
-1.44066486665e-06 -6.96912948341e-05  0.
-1.79200058789e-06 -8.80209306099e-05  0.
-5.43810369544e-07 -4.02632437511e-05  0.
-1.11920546218e-06 -6.95629749753e-05  0.
-1.40579431521e-06 -8.80460662743e-05  0.
-2.7156777469e-07 -4.0052775928e-05  0.
-6.23982926126e-07 -6.93484586465e-05  0.
-7.75805969541e-07 -8.80374923946e-05  0.
0.0 0.0  0.
0.0 0.0  0.
0.0 0.0  0.
2.7156777469e-07 -4.0052775928e-05  0.
6.23982926126e-07 -6.93484586465e-05  0.
7.75805969541e-07 -8.80374923946e-05  0.
5.43810369544e-07 -4.02632437511e-05  0.
1.11920546218e-06 -6.95629749753e-05  0.
1.40579431521e-06 -8.80460662743e-05  0.
7.037568842e-07 -4.03708900936e-05  0.
1.44066486665e-06 -6.96912948341e-05  0.
1.7920005879e-06 -8.80209306099e-05  0.
-1.10587604937e-19 -9.43561907494e-05  0.
-1.3201191534e-07 -9.39536981661e-05  0.
-1.90219167983e-07 -9.41142234895e-05  0.
-1.4088240391e-07 -9.42826467927e-05  0.
-2.12055298051e-19 -9.43969001722e-05  0.
-1.4124548399e-19 -9.44501800558e-05  0.
-9.36158039342e-20 -9.4547079784e-05  0.
-8.16136810861e-08 -9.45087751021e-05  0.
-7.27209866322e-08 -9.44007485117e-05  0.
-7.95296269157e-08 -9.43340547592e-05  0.
-1.45523834953e-07 -9.44035891305e-05  0.
-1.22351847977e-07 -9.42703938195e-05  0.
-1.23335033087e-07 -9.4179542064e-05  0.
-1.81947407233e-07 -9.42548717516e-05  0.
-1.35625018089e-07 -9.41017191801e-05  0.
-1.12875760319e-07 -9.40074432374e-05  0.
1.3201191534e-07 -9.39536981661e-05  0.
1.90219167982e-07 -9.41142234895e-05  0.
1.4088240391e-07 -9.42826467927e-05  0.
7.95296269154e-08 -9.43340547592e-05  0.
7.27209866319e-08 -9.44007485117e-05  0.
8.16136810859e-08 -9.45087751021e-05  0.
1.23335033087e-07 -9.4179542064e-05  0.
1.22351847976e-07 -9.42703938195e-05  0.
1.45523834952e-07 -9.44035891305e-05  0.
1.12875760319e-07 -9.40074432374e-05  0.
1.35625018089e-07 -9.41017191801e-05  0.
1.81947407233e-07 -9.42548717516e-05  0.
</DataArray>
<DataArray type="Float64" Name="stresses" NumberOfComponents="4" format="ascii" >
-41574.0631195 -95758.2140301 -41199.6831449 1.06610276163e-11  
-44455.1905248 -102786.535653 -44172.5178535 555.494724776  
-41775.1145596 -96212.6520955 -41396.3299965 92.7153355159  
-42355.5721353 -97553.1299061 -41972.6106124 216.080466833  
-43251.6754441 -99751.8469149 -42901.0567077 374.47711756  
-46740.9567652 -107877.086035 -46385.41284 -5.09761122203e-11  
-42961.7949892 -99031.4412487 -42597.9708714 -1.05120356864e-10  
-44212.5484798 -101973.655635 -43855.8612345 -9.64206492426e-12  
-45463.1076065 -104905.976014 -45110.7250862 9.78594982826e-12  
-46928.7473297 -108725.872744 -46696.3860221 406.915298324  
-46766.3571749 -108177.073374 -46483.0291645 225.571349921  
-46754.9323763 -108016.358943 -46431.3873959 154.170332118  
-46743.7316261 -107911.926886 -46396.6975537 78.5752214093  
-46364.1258757 -107378.263429 -46122.7167915 409.944276804  
-45799.9122597 -106019.964155 -45545.9629243 405.160337238  
-45242.3209845 -104698.690653 -44982.3034912 390.861194698  
-44248.6120589 -102214.149083 -43938.8283425 261.516800573  
-45039.5542854 -104120.163382 -44747.9153003 243.74731  
-45840.3315288 -106024.705743 -45559.5111816 243.061460907  
-43540.4942541 -100465.943422 -43201.931303 187.209258206  
-44580.5447138 -102939.131298 -44255.9028034 175.144895508  
-45633.7340301 -105417.196621 -45315.2791952 176.0008361  
-43110.0557032 -99395.0762149 -42751.5395754 96.706570212  
-44306.3140342 -102217.85829 -43957.2516972 91.7885687759  
-45506.6652023 -105035.408627 -45162.6221489 90.8105229125  
-44455.1905248 -102786.535653 -44172.5178535 -555.494724776  
-41775.1145596 -96212.6520955 -41396.3299965 -92.7153355158  
-42355.5721353 -97553.1299061 -41972.6106124 -216.080466833  
-43251.6754441 -99751.8469149 -42901.0567077 -374.47711756  
-46928.7473297 -108725.872744 -46696.3860221 -406.915298324  
-45242.3209845 -104698.690653 -44982.3034912 -390.861194697  
-45799.9122597 -106019.964155 -45545.9629243 -405.160337239  
-46364.1258757 -107378.263429 -46122.7167915 -409.944276804  
-46766.3571749 -108177.073374 -46483.0291645 -225.571349922  
-46754.9323763 -108016.358943 -46431.3873959 -154.170332118  
-46743.7316261 -107911.926886 -46396.6975537 -78.5752214092  
-43110.0557032 -99395.0762149 -42751.5395754 -96.706570212  
-44306.3140342 -102217.85829 -43957.2516972 -91.7885687763  
-45506.6652023 -105035.408627 -45162.6221489 -90.8105229124  
-43540.4942541 -100465.943422 -43201.931303 -187.209258206  
-44580.5447138 -102939.131298 -44255.9028034 -175.144895508  
-45633.7340301 -105417.196621 -45315.2791952 -176.0008361  
-44248.6120589 -102214.149083 -43938.8283425 -261.516800573  
-45039.5542854 -104120.163382 -44747.9153003 -243.747309999  
-45840.3315288 -106024.705743 -45559.5111816 -243.061460907  
-56123.7436803 -130502.644702 -55987.9165146 -401.130159633  
-56309.1119134 -131308.342065 -56285.2361936 5.40367750546e-12  
-56287.7533913 -131033.189419 -56196.282843 -219.136685255  
-56296.8742174 -131179.998416 -56243.06179 -148.69705522  
-56306.7810242 -131276.240366 -56274.906417 -75.5254130314  
-58542.8728077 -136489.838243 -58509.8133151 -535.505993624  
-56682.2062744 -131857.894039 -56562.030094 -402.607631029  
-57236.9296148 -133226.722441 -57139.0956169 -395.41187219  
-57787.5928655 -134556.756046 -57703.3046735 -377.91525899  
-61302.8093894 -143461.184033 -61429.1980267 5.1593396222e-11  
-61110.1143222 -143010.647951 -61236.2286819 -69.1914373497  
-60555.0603035 -141680.16836 -60670.5685991 -179.164127238  
-59701.4763947 -139499.677415 -59760.3461429 -337.889818184  
-59972.1650822 -140171.487525 -60043.0957821 9.06359431951e-11  
-58768.5333781 -137221.066461 -58796.8799516 -1.0845546683e-10  
-57556.209338 -134283.115228 -57551.7973699 6.65068000671e-12  
-57514.4851487 -134156.17091 -57501.1968176 -86.0778695558  
-58678.7435479 -136979.449567 -58697.4579344 -83.5549361759  
-59830.3762824 -139810.239554 -59892.1847509 -83.4754752222  
-57392.9671407 -133782.058997 -57352.5078412 -167.792902771  
-58416.2197123 -136266.243208 -58404.738876 -161.074208468  
-59419.2172077 -138747.100621 -59449.8953487 -165.14205927  
-57196.0528015 -133188.254249 -57115.2921151 -233.373409281  
-57975.7714073 -135099.549933 -57922.5964022 -228.313906033  
-58741.1969802 -137013.733698 -58726.4792035 -238.357999452  
-58542.8728077 -136489.838243 -58509.8133151 535.505993624  
-61110.1143222 -143010.647951 -61236.2286819 69.1914373497  
-60555.0603035 -141680.16836 -60670.5685991 179.164127238  
-59701.4763947 -139499.677415 -59760.3461429 337.889818184  
-56123.7436803 -130502.644702 -55987.9165146 401.130159633  
-56682.2062744 -131857.894039 -56562.030094 402.60763103  
-57236.9296148 -133226.722441 -57139.0956169 395.41187219  
-57787.5928655 -134556.756046 -57703.3046735 377.91525899  
-56287.7533913 -131033.189419 -56196.282843 219.136685256  
-56296.8742174 -131179.998416 -56243.06179 148.69705522  
-56306.7810242 -131276.240366 -56274.906417 75.5254130317  
-59830.3762824 -139810.239554 -59892.1847509 83.4754752221  
-58678.7435479 -136979.449567 -58697.4579344 83.5549361761  
-57514.4851487 -134156.17091 -57501.1968176 86.0778695559  
-59419.2172077 -138747.100621 -59449.8953487 165.14205927  
-58416.2197123 -136266.243208 -58404.738876 161.074208468  
-57392.9671407 -133782.058997 -57352.5078412 167.792902771  
-58741.1969802 -137013.733698 -58726.4792035 238.357999452  
-57975.7714073 -135099.549933 -57922.5964022 228.313906033  
-57196.0528015 -133188.254249 -57115.2921151 233.373409281  
-51552.5297523 -119614.755618 -51350.1856111 310.406848852  
-55205.2953888 -128372.546705 -55073.352628 285.947740013  
-53989.7839225 -125443.473203 -53829.9771377 300.68616255  
-52772.2057456 -122526.311688 -52589.5552301 308.504590041  
-51545.684549 -119686.733618 -51369.7254501 425.873852755  
-53478.5118535 -124208.812316 -53306.1972509 464.638672295  
-55355.7308046 -128637.483057 -55197.9641585 533.674622231  
-57073.4961972 -132759.93431 -56950.0291522 599.031079226  
-51550.1423448 -119663.861575 -51364.2011758 428.097817106  
-51551.6923847 -119644.471767 -51358.8492454 401.456873213  
-51552.4024403 -119628.227331 -51354.1889314 359.461374582  
-52951.7132498 -122922.340589 -52762.2161515 353.367834437  
-53125.5314559 -123321.981634 -52934.2539269 399.845807561  
-53300.5785204 -123746.855485 -53114.2302018 433.197261202  
-54330.1296072 -126170.357255 -54150.1460586 331.895099238  
-54660.50698 -126907.481572 -54470.3965655 391.451502341  
-54979.757596 -127683.290497 -54798.914428 441.217850213  
-55656.967311 -129318.32669 -55492.5882004 295.787663942  
-56112.9885135 -130325.41409 -55931.5207811 360.941733288  
-56547.6897197 -131392.5415 -56382.069366 437.775549712  
-49611.8756822 -115159.190645 -49431.3198982 453.023536022  
-47723.4144276 -110710.764317 -47530.2536234 520.382723283  
-45974.6039215 -106553.281917 -45758.3657514 596.134421446  
-47872.1915822 -110856.125744 -47618.4951978 288.77695569  
-49103.3465498 -113785.715363 -48866.7185738 301.045648871  
-50329.9032984 -116703.105374 -50109.9026017 308.278607517  
-49798.125012 -115576.430774 -49612.3667357 428.399160352  
-49975.3966336 -115964.249829 -49781.8939386 397.707689008  
-50150.5080455 -116333.023769 -49945.0595443 352.815458813  
-48110.6482887 -111625.858399 -47920.9520064 435.875728046  
-48431.554396 -112370.45827 -48240.6037999 389.515593016  
-48763.7451023 -113081.611161 -48553.6068791 332.164544538  
-46522.7081163 -107894.227359 -46325.0806426 438.18202046  
-46961.4137233 -108939.114364 -46770.1584263 363.051703795  
-47421.2138884 -109927.274126 -47204.5464043 298.895660085  
-51545.684549 -119686.733618 -51369.7254501 -425.873852755  
-53478.5118535 -124208.812316 -53306.1972509 -464.638672295  
-55355.7308046 -128637.483057 -55197.9641585 -533.674622231  
-57073.4961972 -132759.93431 -56950.0291522 -599.031079226  
-51552.5297523 -119614.755618 -51350.1856111 -310.406848852  
-55205.2953888 -128372.546705 -55073.352628 -285.947740013  
-53989.7839225 -125443.473203 -53829.9771377 -300.68616255  
-52772.2057456 -122526.311688 -52589.5552301 -308.504590041  
-51550.1423448 -119663.861575 -51364.2011758 -428.097817106  
-51551.6923847 -119644.471767 -51358.8492454 -401.456873213  
-51552.4024403 -119628.227331 -51354.1889314 -359.461374582  
-53300.5785204 -123746.855485 -53114.2302018 -433.197261202  
-53125.5314559 -123321.981634 -52934.2539269 -399.845807561  
-52951.7132498 -122922.340589 -52762.2161515 -353.367834438  
-54979.757596 -127683.290497 -54798.914428 -441.217850213  
-54660.50698 -126907.481572 -54470.3965655 -391.451502341  
-54330.1296072 -126170.357255 -54150.1460586 -331.895099238  
-56547.6897197 -131392.5415 -56382.069366 -437.775549712  
-56112.9885135 -130325.41409 -55931.5207811 -360.941733288  
-55656.967311 -129318.32669 -55492.5882004 -295.787663942  
-49611.8756822 -115159.190645 -49431.3198982 -453.023536022  
-47723.4144276 -110710.764317 -47530.2536234 -520.382723283  
-45974.6039215 -106553.281917 -45758.3657514 -596.134421446  
-47872.1915822 -110856.125744 -47618.4951978 -288.776955689  
-49103.3465498 -113785.715363 -48866.7185738 -301.045648872  
-50329.9032984 -116703.105374 -50109.9026017 -308.278607517  
-46522.7081163 -107894.227359 -46325.0806426 -438.182020461  
-46961.4137233 -108939.114364 -46770.1584263 -363.051703795  
-47421.2138884 -109927.274126 -47204.5464043 -298.895660084  
-48110.6482887 -111625.858399 -47920.9520064 -435.875728046  
-48431.554396 -112370.45827 -48240.6037999 -389.515593015  
-48763.7451023 -113081.611161 -48553.6068791 -332.164544538  
-49798.125012 -115576.430774 -49612.3667357 -428.399160352  
-49975.3966336 -115964.249829 -49781.8939386 -397.707689009  
-50150.5080455 -116333.023769 -49945.0595443 -352.815458812  
-55175.0567806 -128369.85407 -55063.4732552 -211.920261906  
-53973.4537398 -125447.41462 -53826.2605079 -230.251785389  
-52764.996407 -122523.460157 -52586.5369693 -239.394607996  
-51552.3495446 -119604.126072 -51346.9426849 -242.768347961  
-50336.7582577 -116684.793036 -50106.465388 -239.960719051  
-49119.3335941 -113760.846566 -48864.054048 -231.786424695  
-47902.4216372 -110838.824628 -47622.3738795 -215.155587029  
-55160.9150195 -128368.710354 -55058.8876119 -141.742616202  
-53961.8044744 -125440.969374 -53820.8321547 -154.067931982  
-52759.685854 -122518.331217 -52583.4051213 -159.086168316  
-51552.1597324 -119596.625388 -51344.6355362 -160.615548439  
-50341.5306402 -116674.999531 -50104.9590514 -159.591733555  
-49130.0088609 -113752.722704 -48864.8194694 -155.362612318  
-47914.7237242 -110825.849171 -47622.1718687 -144.278844853  
-55148.6194748 -128362.885308 -55053.4514347 -70.581718102  
-53957.4595865 -125434.880295 -53817.7019644 -77.568473916  
-52757.1898211 -122512.574886 -52580.929412 -79.8057240095  