<?xml version="1.0"?>
<VTKFile type="UnstructuredGrid" version="0.1" byte_order="LittleEndian" compressor="vtkZLibDataCompressor">
<UnstructuredGrid>
<Piece NumberOfPoints="8" NumberOfCells="1">
<PointData>
<DataArray type="Float64" Name="displacement" NumberOfComponents="3" format="ascii" >
0.000202798000052 0.000668529549367 0.000202798000052 
0.0 0.0 0.0 
-0.000202798000052 0.000668529549367 0.000202798000052 
0.0 0.0 0.0 
0.0 0.0 0.0 
0.0 0.0 0.0 
-0.000202798000052 0.000668529549367 -0.000202798000052 
0.000202798000052 0.000668529549367 -0.000202798000052 
</DataArray>
<DataArray type="Float64" Name="sigma" NumberOfComponents="6" format="ascii" >
-45041.4552203 18751.6850209 -45041.4552203 6046.04126072 6046.04126072 -3.3462520109e-12  
96508.2297992 141248.315085 96508.2297992 6804.59529706 6804.59529706 5.63199175764e-13  
-45041.4552203 18751.6850209 -45041.4552203 -6046.04126072 6046.04126072 6.44529127454e-12  
96508.2297992 141248.315085 96508.2297992 -6804.59529706 6804.59529706 3.06588890797e-13  
96508.2297992 141248.315085 96508.2297992 6804.59529706 -6804.59529706 8.53431636333e-13  
96508.2297992 141248.315085 96508.2297992 -6804.59529706 -6804.59529706 -5.75232439625e-13  
-45041.4552203 18751.6850209 -45041.4552203 -6046.04126072 -6046.04126072 5.77408282573e-12  
-45041.4552203 18751.6850209 -45041.4552203 6046.04126072 -6046.04126072 -3.88215378218e-12  
</DataArray>
</PointData>
<CellData>
</CellData>
<Points>
<DataArray type="Float64" Name="Points" NumberOfComponents="3" format="ascii">
0.0 1.0 0.0 
0.0 0.0 0.0 
1.0 1.0 0.0 
1.0 0.0 0.0 
0.0 0.0 1.0 
1.0 0.0 1.0 
1.0 1.0 1.0 
0.0 1.0 1.0 
</DataArray>
</Points>
<Cells>
<DataArray type="Int64" Name="connectivity" format="ascii">
1 3 2 0 4 5 6 7 
</DataArray>
<DataArray type="Int64" Name="offsets" format="ascii">
8
</DataArray>
<DataArray type="UInt8" Name="types" format="ascii" RangeMin="12" RangeMax="12">
12
</DataArray>
</Cells>
</Piece>
</UnstructuredGrid>
</VTKFile>
