<?xml version="1.0"?>
<VTKFile type="UnstructuredGrid" version="0.1" byte_order="LittleEndian" compressor="vtkZLibDataCompressor">
<UnstructuredGrid>
<Piece NumberOfPoints="8" NumberOfCells="1">
<PointData>
<DataArray type="Float64" Name="displacement" NumberOfComponents="3" format="ascii" >
-7.82142857143e-06 -6.86904761905e-05 -0.00015144047619 
0.0 0.0 0.0 
-1.61785714286e-05 0.00014730952381 -0.00012744047619 
0.0 0.0 0.0 
0.0 0.0 0.0 
0.0 0.0 0.0 
-8.13214285714e-05 0.00030769047619 -0.00022494047619 
0.000105321428571 0.00052369047619 -0.00024894047619 
</DataArray>
<DataArray type="Float64" Name="sigma" NumberOfComponents="6" format="ascii" >
-4543.85458664 4621.80190524 -7666.19836672 4027.473408 8777.81821357 3017.18752314  
2281.46296067 9402.70671934 1444.8334663 1258.24263877 -2349.24502393 808.452960238  
-390.008432794 14314.1095976 -3512.35221287 3005.2670414 1745.07776416 -105.156256941  
6435.30911451 19095.0144116 5598.67962015 236.036272167 -3843.52393487 -28.1765341265  
16043.8545866 47092.483809 16880.484081 906.82087069 -4514.3085334 808.452960238  
11890.0084328 37400.1761167 12726.6379272 -2401.09978163 -6008.58744433 -28.1765341265  
-2935.30911451 29190.6998741 187.034665567 -5170.33055086 -419.985745296 -105.156256941  
1218.53703933 38883.0075664 4340.88081941 -1862.40989854 6612.7547041 3017.18752314  
</DataArray>
</PointData>
<CellData>
</CellData>
<Points>
<DataArray type="Float64" Name="Points" NumberOfComponents="3" format="ascii">
-1.0 1.0 -1.0 
-1.0 -1.0 -1.0 
1.0 1.0 -1.0 
1.0 -1.0 -1.0 
-1.0 -1.0 1.0 
1.0 -1.0 1.0 
1.0 1.0 1.0 
-1.0 1.0 1.0 
</DataArray>
</Points>
<Cells>
<DataArray type="Int64" Name="connectivity" format="ascii">
1 3 2 0 4 5 6 7 
</DataArray>
<DataArray type="Int64" Name="offsets" format="ascii">
8
</DataArray>
<DataArray type="UInt8" Name="types" format="ascii" RangeMin="12" RangeMax="12">
12
</DataArray>
</Cells>
</Piece>
</UnstructuredGrid>
</VTKFile>
