<?xml version="1.0"?>
<VTKFile type="UnstructuredGrid" version="0.1" byte_order="LittleEndian" compressor="vtkZLibDataCompressor">
<UnstructuredGrid>
<Piece NumberOfPoints="218" NumberOfCells="192">
<PointData>
<DataArray type="Float64" Name="displacement" NumberOfComponents="3" format="ascii" >
0.103917435096 -0.0082703608504  0.
0.0578771966874 -0.0828596929582  0.
0.112054352995 -0.0131091426865  0.
0.112306736138 -0.0195783115248  0.
0.10895432276 -0.0266984884948  0.
0.103711284517 -0.0342501513861  0.
0.0970658915637 -0.0421707725858  0.
0.0894378425485 -0.0503758256631  0.
0.0812400944361 -0.0587341736284  0.
0.0729019317108 -0.0670628685063  0.
0.0648875298863 -0.0751431726778  0.
0.0511907746279 -0.130446870248  0.
0.0578731699914 -0.0903429590197  0.
0.0574733750106 -0.0970251636774  0.
0.056903937153 -0.103047794896  0.
0.0562519376585 -0.108489634237  0.
0.0555468234027 -0.113372600228  0.
0.0547975787822 -0.117706417356  0.
0.0540081107583 -0.121516238263  0.
0.0531758179041 -0.124845366137  0.
0.0522798342264 -0.127766614768  0.
0.0731481205571 -0.0955351736044  0.
0.0529263725436 -0.12884685037  0.
0.0549135135053 -0.126731389594  0.
0.0571285614624 -0.12414903499  0.
0.0594785497884 -0.121118385255  0.
0.0619066627317 -0.117663199804  0.
0.0643481132935 -0.113817706202  0.
0.0667394569293 -0.109626680808  0.
0.0690286231242 -0.105141855236  0.
0.0711750562806 -0.100421904363  0.
0.0820305869 -0.0913923512713  0.
0.0905560198021 -0.0865067196954  0.
0.0983183717351 -0.0806306424063  0.
0.104901648679 -0.0735059172233  0.
0.109970321893 -0.0650218427965  0.
0.113325371669 -0.0553865746424  0.
0.114803927381 -0.0449122417789  0.
0.114158038684 -0.0338926112637  0.
0.11089309209 -0.0221073265192  0.
0.11418358766 -0.0264419303128  0.
0.114680707353 -0.0385061020037  0.
0.113443482043 -0.0497553356994  0.
0.110789037097 -0.0603619824655  0.
0.106746321564 -0.0700373161286  0.
0.10141456655 -0.0785438218758  0.
0.0949130122047 -0.0857008037201  0.
0.0874945528969 -0.0915884644548  0.
0.0794762971014 -0.0964208878269  0.
0.112684513 -0.0323550238354  0.
0.111827630478 -0.0442285499121  0.
0.109816354675 -0.0553847948842  0.
0.106707966818 -0.0658660369588  0.
0.102467541819 -0.0753864906256  0.
0.0971843542482 -0.083746759494  0.
0.0909746670661 -0.0907959646203  0.
0.0840422683003 -0.096589577337  0.
0.0766419849389 -0.101304659049  0.
0.108672756071 -0.0390343792233  0.
0.10724762481 -0.0505845161054  0.
0.104840013167 -0.0614496761339  0.
0.10158480498 -0.071653048435  0.
0.0974045411986 -0.080888716782  0.
0.0923790813803 -0.0889842036685  0.
0.0866161094714 -0.0958194483172  0.
0.0802836828438 -0.101436098807  0.
0.0735877506245 -0.105979719436  0.
0.103082656365 -0.0461729950908  0.
0.10138600534 -0.0573272374192  0.
0.0988445761347 -0.0677792055875  0.
0.0956427999243 -0.0775669185384  0.
0.0917167299641 -0.0864070747153  0.
0.0871161420566 -0.0941405993591  0.
0.0819329666907 -0.100678644529  0.
0.0762991566256 -0.106053923581  0.
0.0703789111555 -0.110383631691  0.
0.0962842156471 -0.0536321079714  0.
0.0945353114456 -0.0642959567954  0.
0.0920622499611 -0.0742226136203  0.
0.0890802658148 -0.0834678558259  0.
0.0855641541402 -0.0918108978899  0.
0.0815266280978 -0.0991018093976  0.
0.0770333920935 -0.105278571385  0.
0.0721796544943 -0.11036625435  0.
0.0670893348756 -0.114454432104  0.
0.0886485917393 -0.0612694447037  0.
0.0870200711225 -0.0713322192488  0.
0.0847849530225 -0.0806301271218  0.
0.0821507106354 -0.0892227741013  0.
0.0791492765683 -0.0969738761246  0.
0.0757716266717 -0.103756353374  0.
0.072046716255 -0.109524259478  0.
0.0680310107992 -0.114295189547  0.
0.0638053209432 -0.118131682288  0.
0.0805667502955 -0.0689223395346  0.
0.0792002041622 -0.0782707253761  0.
0.0773392008882 -0.0868485472926  0.
0.0751577048063 -0.0947100188546  0.
0.0727194441518 -0.101789349411  0.
0.0700341545182 -0.108005202848  0.
0.0671101439486 -0.113326343196  0.
0.0639605232848 -0.117764003225  0.
0.0606139992295 -0.121357146549  0.
0.0724527381141 -0.0764102576467  0.
0.07144936287 -0.0849468750183  0.
0.0700457987577 -0.0927310776575  0.
0.0683881434557 -0.0998148738685  0.
0.0665439780859 -0.106176941683  0.
0.064538414396 -0.111779296081  0.
0.0623824487691 -0.116615460168  0.
0.0600726534931 -0.12070575852  0.
0.0575873404669 -0.124075593421  0.
0.0647429504155 -0.0835687487917  0.
0.0641170232355 -0.0912250269296  0.
0.0631741493889 -0.0981572890056  0.
0.0620479030468 -0.104433235829  0.
0.060796748023 -0.110059941804  0.
0.0594452927917 -0.11503010089  0.
0.0580057696329 -0.119357827349  0.
0.0564754675127 -0.123077305305  0.
0.0548205090319 -0.126234914957  0.
0.0766127624977 -0.0855058764931  0.
0.074955703146 -0.0905346105362  0.
0.105534678877 -0.0164263384518  0.
0.104565143774 -0.012734037844  0.
0.111754154694 -0.0263328813934  0.
0.115576947787 -0.035376203822  0.
0.117204638732 -0.0440284477161  0.
0.11656922066 -0.0523583920922  0.
0.113669501314 -0.0600013443075  0.
0.108727592261 -0.0666824821623  0.
0.102132718169 -0.0723318232304  0.
0.0942818459408 -0.0771443130015  0.
0.0855895603888 -0.0814322480345  0.
0.0839358604626 -0.0864654679055  0.
0.092594881262 -0.081870242881  0.
0.100436579308 -0.0765151307573  0.
0.107017808468 -0.0701168319834  0.
0.111971172854 -0.0625026103631  0.
0.115068011198 -0.0538191709023  0.
0.116188145683 -0.0443753760948  0.
0.115131531507 -0.0345666009009  0.
0.111550756065 -0.0242077516324  0.
0.0 0.0  0.
0.0 0.068503248309  0.
0.0 0.0310969451792  0.
0.049378145023 0.0417228166987  0.
0.0818835847661 0.0163307344267  0.
0.0642497664301 -0.00725286028093  0.
0.0935164946498 -0.010057234845  0.
0.0570726542698 0.0184221748872  0.
0.0881989551257 0.00272429789053  0.
0.0 0.0  0.
0.0 0.0  0.
0.0 0.0  0.
0.0 0.0  0.
0.0 0.0  0.
0.0 0.0  0.
0.0 0.0  0.
0.0 0.0  0.
0.0 0.0  0.
0.0 0.0  0.
0.0664998324211 -0.0725001651228  0.
0.043547713789 -0.0459361710979  0.
0.0562294121256 -0.0406771178552  0.
0.0781320817221 -0.0671038637716  0.
0.0647685482656 -0.0387403739782  0.
0.0879485622282 -0.0631804921746  0.
0.0720766822836 -0.0368977722624  0.
0.0963348820998 -0.0594016913379  0.
0.0781805680577 -0.0349101852424  0.
0.103323928334 -0.0550450011511  0.
0.0828389512235 -0.0325776619218  0.
0.108502128316 -0.0498595917789  0.
0.0856780729336 -0.0298309513351  0.
0.11137440644 -0.0437999526903  0.
0.0863168300922 -0.0266536502456  0.
0.111575975542 -0.037024710926  0.
0.0842750859493 -0.0228164202868  0.
0.108979188359 -0.0296421622685  0.
0.0786756277485 -0.0178392999294  0.
0.103106429841 -0.0210021982216  0.
0.0 -0.140656499294  0.
0.0 -0.0163654832673  0.
0.0 -0.0318827234536  0.
0.0 -0.0465582265434  0.
0.0 -0.0603970201427  0.
0.0 -0.0733887959749  0.
0.0 -0.0855182606857  0.
0.0 -0.0967751189337  0.
0.0 -0.107162290591  0.
0.0 -0.116700660394  0.
0.0 -0.125430108093  0.
0.0 -0.133405622218  0.
0.0306859217429 -0.131793925314  0.
0.0454412605414 -0.132500142027  0.
0.0422213939064 -0.056169966817  0.
0.0409882776953 -0.0657609360809  0.
0.0398279161998 -0.0747616099972  0.
0.0386603130671 -0.0832434086013  0.
0.0374485116804 -0.0912223304912  0.
0.0361954424791 -0.0986803936129  0.
0.0349385375641 -0.105585990765  0.
0.0337401561489 -0.11191286503  0.
0.0326709924004 -0.117656343135  0.
0.0317995792582 -0.122839690325  0.
0.0311743636425 -0.127516926573  0.
0.0645496663319 -0.0797057544256  0.
0.0628129614093 -0.086387673194  0.
0.061046532213 -0.092761820199  0.
0.0591915341993 -0.0988371888043  0.
0.0572370412323 -0.104584512626  0.
0.0552065040895 -0.109959016758  0.
0.053150134242 -0.114912319656  0.
0.0511415897564 -0.119400554977  0.
0.0492626915859 -0.123396281142  0.
0.0475938894152 -0.126892965774  0.
0.0462249292171 -0.129907043762  0.
</DataArray>
<DataArray type="Float64" Name="stresses" NumberOfComponents="4" format="ascii" >
-154755.263072 -92842.3933603 -122666.351507 29268.8858655  
-73638.6653041 -76812.7121801 -73721.1749673 3234.99683984  
65363.1375596 86513.8733968 75596.2320981 41124.2283793  
26155.2748349 31726.0683124 28684.6436745 29375.8800848  
28962.0282646 25687.9294308 26778.4792707 20937.0641409  
39672.6488609 30579.9211121 34423.7592867 12728.8776959  
38681.950914 26011.5594051 31699.8200564 6862.47976429  
27975.9138362 13674.1680673 20408.5401327 2891.68174175  
11127.4371171 -2640.26993986 4158.71191686 592.026052534  
-7031.259101 -17645.8476884 -12091.7823268 -57.3935526767  
-31821.8695077 -36797.9549861 -33623.714002 1904.70587765  
-65588.8776162 -105376.721538 -83773.1435854 -530.929517439  
-60386.5776077 -68449.9960505 -63129.9210925 2689.10756659  
-67790.1858969 -83936.6302547 -74346.1399143 698.947357957  
-76762.4013365 -96775.6282068 -85033.6344762 -685.329257845  
-79999.6483339 -102036.288469 -89197.6090336 -1465.02390606  
-79575.1622242 -102950.919617 -89437.7801021 -1816.66472281  
-77990.2871556 -102476.533742 -88428.7422396 -1760.12113484  
-76891.6506182 -102488.675938 -87896.3600126 -1213.14783145  
-76788.9903592 -103861.106549 -88518.5474849 2.15908346087  
-68447.8927911 -98713.2921484 -81908.9806204 2398.63303313  
-95903.5772334 -176683.096211 -134660.794046 786.255629937  
32859.8271911 -17284.4791979 7623.7873634 -2728.08960476  
23271.9997005 -35377.2866908 -5989.01804177 -4390.38205189  
14622.5476026 -47981.3800719 -16445.1650928 -4974.83883617  
3079.8146525 -63400.054982 -29731.9384134 -4832.43483022  
-10334.0151815 -80414.5068121 -44753.1465081 -4283.92269085  
-25395.9899903 -98684.4108559 -61224.4020989 -3454.52296768  
-41774.6125636 -117789.488806 -78766.8620519 -2437.52066747  
-59012.5956802 -137212.217501 -96899.9051511 -1319.03747148  
-76481.7382294 -156263.164423 -114963.861795 -200.389279201  
-131799.685046 -211396.430567 -169472.523927 1022.31712135  
-134948.697961 -212006.662027 -171235.119544 2363.00086464  
-137733.120696 -210185.741778 -171528.126232 4785.80673148  
-141940.846763 -207398.57042 -171931.437218 8685.80176644  
-150453.821324 -205676.255693 -174867.524095 14307.7975502  
-167798.184477 -206583.273294 -183484.80332 21414.8122607  
-196587.472874 -209762.048632 -199242.243489 27247.4470249  
-233277.624764 -217933.304434 -222085.708886 29970.6087933  
-289219.089106 -248634.311245 -265709.244359 30526.0609764  
54603.2530158 69935.1608365 61986.4142871 34495.6818437  
-22363.537169 -28384.8058505 -24590.7453044 28774.9797213  
-50813.6113371 -78937.1275868 -63595.3616472 24346.6544218  
-70651.9393789 -117165.245089 -92127.407922 18849.5392995  
-80094.8856504 -138695.250343 -107543.745577 12682.0197296  
-87028.3652665 -153849.261809 -118615.008055 7663.52991268  
-94392.8701995 -167047.760534 -128917.362428 4008.61600679  
-100566.431972 -177112.786143 -137044.306623 1634.32595848  
-104014.817005 -182741.023973 -141590.933118 239.251815266  
-761.671411732 -4356.12542367 -2406.86549098 25528.0621117  
-32387.7790289 -55372.9205326 -43017.8540379 22498.5637116  
-54262.5079961 -94845.5241166 -73053.8800767 17857.7414929  
-64975.5157997 -118586.012861 -90037.8638956 13448.105048  
-69216.0532112 -131005.122746 -98434.340297 8969.92611626  
-72034.0029336 -139918.172838 -104381.609936 5249.34332314  
-77065.8056291 -149540.414471 -111731.396459 2385.74251886  
-81980.6911907 -157592.321754 -118215.773061 440.799525598  
-85174.8960913 -162536.993185 -122283.600032 -698.353487175  
-22490.0139601 -37079.0328193 -29188.8329219 17931.1743479  
-34842.2434644 -67073.6372032 -49938.7815271 15234.4789033  
-42531.8124996 -89641.7337165 -64761.6036503 12500.7949086  
-50267.9320773 -107268.077008 -77273.6442741 9301.44722696  
-53838.6907361 -116875.143036 -83927.2085793 5997.40005783  
-55549.4090845 -123344.964226 -88090.8691588 3193.41326163  
-59397.3775748 -130881.48736 -93798.7152627 960.325327851  
-63745.9856353 -137778.705377 -99410.7188282 -597.289651749  
-67036.161828 -142462.123201 -103382.660615 -1503.16306398  
-18289.1041799 -38892.3833383 -28018.9288839 11193.8486068  
-25767.7860173 -63059.5662184 -43525.4025955 9749.85711372  
-30464.0587441 -80804.0416924 -54520.9710784 7982.49178758  
-33728.2278823 -92119.8441576 -61723.6955248 5744.57362265  
-37653.1446628 -100582.532977 -67945.8573322 3391.12302495  
-38998.0170573 -105695.397342 -71225.9851005 1352.56891333  
-42267.9620772 -111959.159332 -75997.1628418 -293.864169314  
-46232.4373264 -118028.732917 -80993.8427319 -1463.19153301  
-49634.1582268 -122566.755289 -84937.3866215 -2140.15937053  
-11466.3456912 -35020.7047426 -22778.6547125 6140.97155366  
-15774.8556475 -54961.7740796 -34660.9485663 5404.31742811  
-19527.6573849 -70144.1183613 -43939.1701157 4251.83418792  
-19171.8382766 -76841.2954296 -47086.7160445 2737.37710114  
-22070.2084245 -83707.9417982 -51971.0369067 1160.68649018  
-23237.2112984 -87859.6734682 -54661.6090035 -218.265379613  
-25873.1690974 -92959.203455 -58522.3942763 -1316.35095084  
-29384.4160949 -98273.5870638 -62906.6431474 -2084.37922017  
-32935.6195794 -102833.46247 -66923.6946415 -2537.47162636  
-3544.1080885 -27352.3835129 -15139.2808847 2700.15607714  
-6146.27851321 -44223.6892547 -24681.2842063 2358.90329132  
-9331.44997051 -57394.1399197 -32695.5390462 1656.37552503  
-7255.53673729 -62111.8454112 -34010.954445 581.587211436  
-8053.8016502 -67163.712295 -36936.360825 -501.888288111  
-8705.42662217 -70362.9045674 -38883.5003356 -1404.85036494  
-10230.5508434 -73926.2592625 -41423.1008055 -2022.61878103  
-12864.7373761 -78181.5654136 -44838.6428282 -2392.46343982  
-16570.2131824 -82920.0495667 -49007.0816809 -2611.17817101  
3536.111754 -17857.0714427 -7017.27024748 831.849276694  
1170.43105438 -32853.2727213 -15524.5924168 705.340773236  
-750.201607813 -43453.7688731 -21659.9455356 301.45387027  
1898.28098758 -46794.9542999 -21999.369923 -436.871464377  
3502.84426308 -49926.5308161 -22771.6230135 -1308.86842092  
4017.96175083 -53400.1252129 -24263.3751071 -1993.24157518  
3796.55637357 -55868.0735468 -25628.2321549 -2276.14580317  
2754.40191485 -58368.5427558 -27388.8017003 -2282.84167625  
19.7524111723 -62303.7140524 -30668.8279015 -2234.81805361  
5803.80441204 -10621.3991547 -2360.6214239 594.698125608  
4020.13623369 -23388.8668667 -9490.67801019 441.769793885  
5157.34644574 -29689.5128784 -12020.761552 70.6394090073  
8198.25324795 -31569.0539847 -11451.692361 -481.699555075  
11027.4140089 -32612.797205 -10576.8377661 -1136.61241088  
12845.5113701 -34305.2286723 -10515.2870263 -1661.60762531  
14542.4384137 -36123.5622825 -10580.7211613 -1830.97027555  
17039.0873754 -37005.6670117 -9808.67110125 -1532.89757331  
17941.8978897 -38874.9981859 -10320.5632394 -1084.53059282  
-5655.41982299 -15563.8772035 -10397.455543 2287.88041105  
4856.70507693 -14586.5444409 -4767.62128836 1477.57795331  
10140.6276905 -15347.0848082 -2551.16398766 658.914782105  
13708.7480313 -15495.9053215 -875.707072201 -17.1279486791  
16498.6738951 -15416.2796193 530.373195107 -564.77090516  
18352.4798763 -15850.4748356 1225.98246994 -883.46821345  
19923.3051365 -16460.1281653 1696.95671589 -811.114349116  
23424.5512686 -15515.8890322 3875.24449583 -210.143087464  
34432.8455529 -8593.42121551 12661.3179253 864.233809345  
-127823.147338 -209075.545616 -166449.115487 1845.14708003  
-106138.319541 -187450.254793 -145047.203626 1499.15005484  
82367.838019 147495.152708 113271.887914 18846.5696405  
34074.9225741 103373.186078 67786.1043315 20040.6292143  
-53433.654247 -3069.81203454 -28080.9598206 23258.3961766  
-86116.3514799 -56264.5362139 -70061.8076457 26814.6949023  
-103812.105981 -101349.307201 -100618.484984 26627.06497  
-111760.55735 -137901.456363 -122478.367514 23554.9814883  
-115867.737704 -165259.785622 -138004.198731 18918.5048943  
-126492.546777 -188829.14964 -155276.538773 13501.6981407  
-134991.419592 -206261.006002 -168326.57591 8916.21085913  
-147184.567485 -224370.953643 -183448.336727 5165.153031  
-169688.345087 -250129.25822 -207366.235631 2761.41771593  
-150689.046674 -231040.815651 -188527.227092 1575.504892  
-147290.6385 -224974.430152 -183758.567015 2652.34627474  
-145704.580335 -218434.104559 -179539.101646 4776.52163254  
-144300.786151 -209622.035035 -174146.322851 8244.3756994  
-139661.529465 -194262.98057 -163774.051866 13487.7743352  
-136781.311193 -171873.657005 -151193.099453 19746.9832972  
-139894.402327 -146023.264156 -140099.287745 24271.2220952  
-151805.09522 -128122.531598 -137623.498631 27318.2153145  
-200904.621538 -153114.720795 -174800.153791 25156.3007755  
-369984.882482 -344876.455949 -351383.409814 20650.3192001  
-182489.709767 -121891.080709 -149627.685534 9363.90940475  
-400377.807101 -339531.913056 -363912.221131 10166.9709132  
-77283.5738373 -10299.9260387 -43274.530215 6559.9111352  
-54076.8101215 22735.872458 -15664.8524492 9794.17283122  
-373284.530455 -307761.436226 -335406.922395 14052.8047626  
-169752.640269 -99874.8766263 -133123.102937 14993.9533418  
-222584.972858 -152914.58224 -185181.119928 9167.98504017  
-135208.02262 -58682.4487364 -95790.2425304 12124.2079614  
-791949.589209 -846973.755786 -805260.022239 14854.1413306  
-878503.006152 -910284.508158 -877213.631344 23326.509101  
-833417.952965 -862144.37395 -832210.080251 25308.6242331  
-791396.063838 -817780.476971 -790398.513583 26845.3738613  
-745645.387069 -769954.682685 -744872.822923 28093.5570662  
-691627.498505 -714042.688327 -691101.335124 29054.1368199  
-627830.938585 -648469.426987 -627585.604518 29721.058449  
-553949.17609 -572946.846518 -554057.396925 30073.184155  
-465071.191222 -482576.995143 -465711.701298 30120.6078278  
-349306.517937 -365878.360525 -350883.218926 30587.2814177  
-236199.123786 -317128.490485 -273346.677161 4043.98124212  
-411089.506559 -484125.627585 -441709.744327 7289.40081758  
-369139.097377 -430406.156915 -393602.977366 12454.9777454  
-230819.412849 -306009.654392 -264959.176344 5975.39235218  
-394872.281319 -447399.51754 -414160.441457 17180.6626093  
-217217.512892 -285820.656108 -248040.133266 9651.86177856  
-399338.524687 -445877.247901 -415594.041412 21018.323464  
-223365.559803 -285341.26829 -250625.648542 14343.6885275  
-401926.566654 -442011.849727 -414960.197759 24237.4552865  
-228983.310139 -282161.757258 -251591.196875 19338.0936641  
-405650.728906 -438198.405467 -414845.725267 26871.188988  
-237903.334439 -278465.303238 -253826.657677 24119.09124  
-411998.9793 -435418.199753 -416409.540442 28769.6810734  
-250177.972824 -272916.601784 -256695.703824 27963.1405441  
-424564.392629 -436220.380664 -422745.152337 29418.6540903  
-261256.789464 -260303.786888 -255810.177797 28593.9061996  
-450655.664631 -446328.275058 -440307.154103 27828.4848129  
-271781.525379 -243528.178644 -252918.570304 26061.683985  
-512699.925289 -478734.855537 -487009.375605 22841.0997943  
-241115.154383 -188654.955664 -211646.93749 19715.616427  
18789.9526015 -38651.2465822 -9733.92917791 4225.01254515  
-586491.485425 -657536.024846 -613722.106846 10078.9360787  
-530272.446825 -600102.227888 -557409.218112 9053.98414384  
-472913.733314 -541511.637633 -500003.228984 8132.01470863  
-415516.901845 -482840.213251 -442574.095658 7289.1115544  
-357880.358295 -423876.284469 -384918.856666 6513.73468295  
-299910.435938 -364532.55779 -326958.290484 5817.20564055  
-241644.272058 -304869.566112 -268750.680029 5218.9604173  
-183204.763303 -245044.999952 -210443.759917 4738.98044109  
-124811.065232 -185315.181188 -152287.975861 4402.42076926  
-66576.5783204 -125829.578712 -94416.9997959 4217.72899096  
-6620.78376073 -64705.9040059 -34983.0442112 4185.28567764  
15502.1701078 -41548.0472519 -12762.5125766 260.176178786  
-15437.3874019 -66411.4291835 -40105.9201268 -2095.40824195  
-396461.133822 -472567.686959 -429019.616072 6543.14904421  
-351899.521126 -426062.550527 -383867.517287 5366.23693377  
-309718.62846 -382131.108589 -341213.080511 4244.21906588  
-268604.348648 -339422.093992 -299729.03601 3110.77498535  
-228160.316555 -297343.783255 -258911.800751 1991.94503378  
-188175.469789 -255580.740212 -218502.658984 959.944705767  
-148617.390483 -214086.838896 -178469.066308 101.770007818  
-109473.869409 -172919.969824 -138838.229759 -466.128087176  
-70842.2383067 -132300.128987 -99785.5258322 -652.950795981  
-32930.8910938 -92566.5729256 -61590.8441076 -424.298619324  
3302.27453789 -54789.2266594 -25247.2871958 -19.655757727  
-227346.788762 -308515.210002 -264743.44405 3598.25931928  
-202398.975768 -281166.922504 -238799.107551 2527.01836754  
-178437.536768 -255538.950595 -214236.658054 1238.91688075  
-154307.353835 -229658.142986 -189478.863484 -218.932779632  
-129881.16426 -203193.94525 -164295.475652 -1729.74630288  
-105326.722123 -176238.20126 -138811.403187 -3164.90057672  
-80738.0671523 -148898.791605 -113131.112678 -4398.28120454  
-56105.7335289 -121271.356001 -87312.8175323 -5306.30076819  
-31446.0744371 -93563.3836593 -61472.7171428 -5736.69747189  
-7564.97368301 -66792.8623253 -36525.0006746 -5528.48916672  
10942.1829895 -44609.3717515 -16504.1945523 -3871.07198465  
</DataArray>
<DataArray type="Float64" Name="equivalent_strain" NumberOfComponents="1" format="ascii" >
0.00249175362723  
0.0  
0.00205178929425  
0.000450324743119  
0.0  
0.0  
0.0  
0.0  
0.0  
0.0  
0.0  
0.0  
0.0  
0.0  
0.0  
0.0  
0.0  
0.0  
0.0  
0.0  
0.0  
0.00197175343374  
1.35236892062e-05  
0.000184167592159  
0.000510647000051  
0.000821627495469  
0.00110487737587  
0.00135520848179  
0.00156910929929  
0.00174430409838  
0.00187756273592  
0.00189276123625  
0.00168585413174  
0.00133522608508  
0.000882187274221  
0.000418384518174  
0.000102718290459  
7.82354766156e-05  
0.000442494682347  
0.00146018863764  
0.00112256975412  
0.000454084952539  
0.000197754761599  
0.000252128713274  
0.000559349259225  
0.000951399395517  
0.00133557506475  
0.00163513622564  
0.00181523675013  
0.000202114470917  
6.09130632227e-06  
3.0556453073e-05  
0.00022873800264  
0.000589405261585  
0.000958954773956  
0.00129449751075  
0.00154898583051  
0.00169889177372  
0.0  
0.0  
1.28485591712e-05  
0.000214865664026  
0.000568727188783  
0.000904709946192  
0.00119647975093  
0.00141266793866  
0.00153571161382  
0.0  
0.0  
3.67317399492e-06  
0.000170467441084  
0.000489310121351  
0.000786307128027  
0.00103848741374  
0.00122332634032  
0.00132575580915  
0.0  
0.0  
0.0  
0.000104810738712  
0.000347360242221  
0.0006008294574  
0.000816763367714  
0.000977535100864  
0.00106849047019  
0.0  
0.0  
0.0  
2.99814649373e-05  
0.000158383398174  
0.000349809268386  
0.000530324216974  
0.000673149919493  
0.00076399344053  
0.0  
0.0  
0.0  
0.0  
2.5760984741e-05  
8.48868101086e-05  
0.000191280255791  
0.000311838199662  
0.000413507374574  
0.0  
0.0  
0.0  
0.0  
0.0  
0.0  
3.89378806877e-06  
3.00282433689e-05  
8.52018458028e-05  
0.0  
0.0  
0.0  
0.0  
0.0  
0.0  
0.0  
0.0  
0.0  
0.00203868856362  
0.00203861937793  
0.00149537282483  
0.00188853187313  
0.000906726414058  
0.000316041190985  
0.000158488492752  
0.000223861637485  
0.000484910492296  
0.000944735426773  
0.00136046431778  
0.0017029648155  
0.0019410511119  
0.00195588458548  
0.00173883067763  
0.00135548837794  
0.000850154687829  
0.000301919482873  
0.0  
0.0  
0.000210354191795  
0.00102393496158  
0.000418840867506  
0.000571340927918  
0.000692363463077  
0.000986089370445  
0.00189397045328  
0.000996510075435  
0.00152538064825  
0.00123021396474  
0.00190978828094  
0.000843863913345  
0.000150201690412  
0.000258124324679  
0.000385096640013  
0.000494067733397  
0.000570451714922  
0.000599734436902  
0.000569216377511  
0.000461663472124  
0.000235264093745  
0.00198382492983  
0.00140990097374  
0.000738436382057  
0.00156120044076  
0.000528029710438  
0.00118710170861  
0.000537193391107  
0.000958486343367  
0.000551362960311  
0.000753423384398  
0.000532006500478  
0.000523156778728  
0.000455642332223  
0.000282815892129  
0.000349026295192  
0.000146035174599  
0.00025356040773  
0.000185942431614  
0.00034249934417  
0.000677707830279  
2.47850287033e-05  
0.0014978661317  
0.00133390849143  
0.00117963904587  
0.0010306950229  
0.000882256719427  
0.000732987506061  
0.000584434353502  
0.000440266014848  
0.000305180972085  
0.000183863535091  
7.8025813329e-05  
5.90116928069e-06  
0.0  
0.00172311245371  
0.00152457470749  
0.00135208953011  
0.00119441333876  
0.00103721379993  
0.000873154200324  
0.000700752507329  
0.000523812755339  
0.000349748984587  
0.000187895901356  
5.6287444857e-05  
0.00202840031607  
0.00182769852362  
0.00167671279014  
0.00152318067138  
0.0013537843707  
0.00116310629964  
0.00094959204168  
0.000716041326215  
0.000469232787167  
0.000217274510317  
3.29262375281e-05  
</DataArray>
</PointData>
<CellData>
</CellData>
<Points>
<DataArray type="Float64" Name="Points" NumberOfComponents="3" format="ascii">
45.0 30.0 0.0
35.0 40.0 0.0
44.0 31.0 0.0
43.0 32.0 0.0
42.0 33.0 0.0
41.0 34.0 0.0
40.0 35.0 0.0
39.0 36.0 0.0
38.0 37.0 0.0
37.0 38.0 0.0
36.0 39.0 0.0
25.0 40.0 0.0
34.0 40.0 0.0
33.0 40.0 0.0
32.0 40.0 0.0
31.0 40.0 0.0
30.0 40.0 0.0
29.0 40.0 0.0
28.0 40.0 0.0
27.0 40.0 0.0
26.0 40.0 0.0
25.0 30.0 0.0
25.0 39.0 0.0
25.0 38.0 0.0
25.0 37.0 0.0
25.0 36.0 0.0
25.0 35.0 0.0
25.0 34.0 0.0
25.0 33.0 0.0
25.0 32.0 0.0
25.0 31.0 0.0
27.0 30.0 0.0
29.0 30.0 0.0
31.0 30.0 0.0
33.0 30.0 0.0
35.0 30.0 0.0
37.0 30.0 0.0
39.0 30.0 0.0
41.0 30.0 0.0
43.0 30.0 0.0
42.1 31.0 0.0
40.2 31.0 0.0
38.3 31.0 0.0
36.4 31.0 0.0
34.5 31.0 0.0
32.6 31.0 0.0
30.7 31.0 0.0
28.8 31.0 0.0
26.9 31.0 0.0
41.2 32.0 0.0
39.4 32.0 0.0
37.6 32.0 0.0
35.8 32.0 0.0
34.0 32.0 0.0
32.2 32.0 0.0
30.4 32.0 0.0
28.6 32.0 0.0
26.8 32.0 0.0
40.3 33.0 0.0
38.6 33.0 0.0
36.9 33.0 0.0
35.2 33.0 0.0
33.5 33.0 0.0
31.8 33.0 0.0
30.1 33.0 0.0
28.4 33.0 0.0
26.7 33.0 0.0
39.4 34.0 0.0
37.8 34.0 0.0
36.2 34.0 0.0
34.6 34.0 0.0
33.0 34.0 0.0
31.4 34.0 0.0
29.8 34.0 0.0
28.2 34.0 0.0
26.6 34.0 0.0
38.5 35.0 0.0
37.0 35.0 0.0
35.5 35.0 0.0
34.0 35.0 0.0
32.5 35.0 0.0
31.0 35.0 0.0
29.5 35.0 0.0
28.0 35.0 0.0
26.5 35.0 0.0
37.6 36.0 0.0
36.2 36.0 0.0
34.8 36.0 0.0
33.4 36.0 0.0
32.0 36.0 0.0
30.6 36.0 0.0
29.2 36.0 0.0
27.8 36.0 0.0
26.4 36.0 0.0
36.7 37.0 0.0
35.4 37.0 0.0
34.1 37.0 0.0
32.8 37.0 0.0
31.5 37.0 0.0
30.2 37.0 0.0
28.9 37.0 0.0
27.6 37.0 0.0
26.3 37.0 0.0
35.8 38.0 0.0
34.6 38.0 0.0
33.4 38.0 0.0
32.2 38.0 0.0
31.0 38.0 0.0
29.8 38.0 0.0
28.6 38.0 0.0
27.4 38.0 0.0
26.2 38.0 0.0
34.9 39.0 0.0
33.8 39.0 0.0
32.7 39.0 0.0
31.6 39.0 0.0
30.5 39.0 0.0
29.4 39.0 0.0
28.3 39.0 0.0
27.2 39.0 0.0
26.1 39.0 0.0
25.0 28.0 0.0
25.0 29.0 0.0
45.0 28.0 0.0
45.0 29.0 0.0
43.0 28.0 0.0
41.0 28.0 0.0
39.0 28.0 0.0
37.0 28.0 0.0
35.0 28.0 0.0
33.0 28.0 0.0
31.0 28.0 0.0
29.0 28.0 0.0
27.0 28.0 0.0
27.0 29.0 0.0
29.0 29.0 0.0
31.0 29.0 0.0
33.0 29.0 0.0
35.0 29.0 0.0
37.0 29.0 0.0
39.0 29.0 0.0
41.0 29.0 0.0
43.0 29.0 0.0
75.0 0.0 0.0
75.0 30.0 0.0
75.0 15.0 0.0
57.8571428571 30.0 0.0
49.2857142857 30.0 0.0
57.8571428571 16.0 0.0
49.2857142857 24.0 0.0
57.8571428571 23.0 0.0
49.2857142857 27.0 0.0
0.0 0.0 0.0
7.5 0.0 0.0
15.0 0.0 0.0
22.5 0.0 0.0
30.0 0.0 0.0
37.5 0.0 0.0
45.0 0.0 0.0
52.5 0.0 0.0
60.0 0.0 0.0
67.5 0.0 0.0
21.4285714286 24.0 0.0
14.2857142857 16.0 0.0
18.6428571429 16.0 0.0
24.2142857143 24.0 0.0
23.0 16.0 0.0
27.0 24.0 0.0
27.3571428571 16.0 0.0
29.7857142857 24.0 0.0
31.7142857143 16.0 0.0
32.5714285714 24.0 0.0
36.0714285714 16.0 0.0
35.3571428571 24.0 0.0
40.4285714286 16.0 0.0
38.1428571429 24.0 0.0
44.7857142857 16.0 0.0
40.9285714286 24.0 0.0
49.1428571429 16.0 0.0
43.7142857143 24.0 0.0
53.5 16.0 0.0
46.5 24.0 0.0
0.0 40.0 0.0
0.0 3.33333333333 0.0
0.0 6.66666666667 0.0
0.0 10.0 0.0
0.0 13.3333333333 0.0
0.0 16.6666666667 0.0
0.0 20.0 0.0
0.0 23.3333333333 0.0
0.0 26.6666666667 0.0
0.0 30.0 0.0
0.0 33.3333333333 0.0
0.0 36.6666666667 0.0
14.2857142857 40.0 0.0
21.4285714286 40.0 0.0
14.2857142857 18.0 0.0
14.2857142857 20.0 0.0
14.2857142857 22.0 0.0
14.2857142857 24.0 0.0
14.2857142857 26.0 0.0
14.2857142857 28.0 0.0
14.2857142857 30.0 0.0
14.2857142857 32.0 0.0
14.2857142857 34.0 0.0
14.2857142857 36.0 0.0
14.2857142857 38.0 0.0
21.4285714286 25.3333333333 0.0
21.4285714286 26.6666666667 0.0
21.4285714286 28.0 0.0
21.4285714286 29.3333333333 0.0
21.4285714286 30.6666666667 0.0
21.4285714286 32.0 0.0
21.4285714286 33.3333333333 0.0
21.4285714286 34.6666666667 0.0
21.4285714286 36.0 0.0
21.4285714286 37.3333333333 0.0
21.4285714286 38.6666666667 0.0
</DataArray>
</Points>
<Cells>
<DataArray type="Int64" Name="connectivity" format="ascii">
0 2 40 39 
2 3 49 40 
3 4 58 49 
4 5 67 58 
5 6 76 67 
6 7 85 76 
7 8 94 85 
8 9 103 94 
9 10 112 103 
10 1 12 112 
39 40 41 38 
40 49 50 41 
49 58 59 50 
58 67 68 59 
67 76 77 68 
76 85 86 77 
85 94 95 86 
94 103 104 95 
103 112 113 104 
112 12 13 113 
38 41 42 37 
41 50 51 42 
50 59 60 51 
59 68 69 60 
68 77 78 69 
77 86 87 78 
86 95 96 87 
95 104 105 96 
104 113 114 105 
113 13 14 114 
37 42 43 36 
42 51 52 43 
51 60 61 52 
60 69 70 61 
69 78 79 70 
78 87 88 79 
87 96 97 88 
96 105 106 97 
105 114 115 106 
114 14 15 115 
36 43 44 35 
43 52 53 44 
52 61 62 53 
61 70 71 62 
70 79 80 71 
79 88 89 80 
88 97 98 89 
97 106 107 98 
106 115 116 107 
115 15 16 116 
35 44 45 34 
44 53 54 45 
53 62 63 54 
62 71 72 63 
71 80 81 72 
80 89 90 81 
89 98 99 90 
98 107 108 99 
107 116 117 108 
116 16 17 117 
34 45 46 33 
45 54 55 46 
54 63 64 55 
63 72 73 64 
72 81 82 73 
81 90 91 82 
90 99 100 91 
99 108 109 100 
108 117 118 109 
117 17 18 118 
33 46 47 32 
46 55 56 47 
55 64 65 56 
64 73 74 65 
73 82 83 74 
82 91 92 83 
91 100 101 92 
100 109 110 101 
109 118 119 110 
118 18 19 119 
32 47 48 31 
47 56 57 48 
56 65 66 57 
65 74 75 66 
74 83 84 75 
83 92 93 84 
92 101 102 93 
101 110 111 102 
110 119 120 111 
119 19 20 120 
31 48 30 21 
48 57 29 30 
57 66 28 29 
66 75 27 28 
75 84 26 27 
84 93 25 26 
93 102 24 25 
102 111 23 24 
111 120 22 23 
120 20 11 22 
121 133 134 122 
133 132 135 134 
132 131 136 135 
131 130 137 136 