<?xml version="1.0"?>
<VTKFile type="UnstructuredGrid" version="0.1" byte_order="LittleEndian" compressor="vtkZLibDataCompressor">
<UnstructuredGrid>
<Piece NumberOfPoints="64" NumberOfCells="27">
<PointData>
<DataArray type="Float64" Name="displacement" NumberOfComponents="3" format="ascii" >
-1.79109939854e-09 -1.63350732012e-07 -1.79109939854e-09 
0.0 0.0 0.0 
-3.80710182163e-08 -1.28786742703e-07 -3.80710182163e-08 
-4.74856679641e-08 -8.52501946887e-08 -4.74856679641e-08 
1.79109939854e-09 -1.63350732012e-07 -1.79109939854e-09 
-1.62438882149e-09 -1.30015517413e-07 2.01557145498e-08 
1.62438882149e-09 -1.30015517413e-07 2.01557145498e-08 
0.0 0.0 0.0 
4.74856679641e-08 -8.52501946887e-08 -4.74856679641e-08 
3.80710182163e-08 -1.28786742703e-07 -3.80710182163e-08 
0.0 0.0 0.0 
0.0 0.0 0.0 
-1.74709918035e-08 -8.82060286482e-08 -5.01822249028e-08 
1.74709918035e-08 -8.82060286482e-08 -5.01822249028e-08 
-1.76773281436e-08 -1.60171748848e-07 -7.32229178871e-08 
1.76773281436e-08 -1.60171748848e-07 -7.32229178871e-08 
0.0 0.0 0.0 
0.0 0.0 0.0 
0.0 0.0 0.0 
0.0 0.0 0.0 
1.79109939854e-09 -1.63350732012e-07 1.79109939854e-09 
4.74856679641e-08 -8.52501946887e-08 4.74856679641e-08 
3.80710182163e-08 -1.28786742703e-07 3.80710182163e-08 
-1.79109939854e-09 -1.63350732012e-07 1.79109939854e-09 
-1.62438882149e-09 -1.30015517413e-07 -2.01557145498e-08 
1.62438882149e-09 -1.30015517413e-07 -2.01557145498e-08 
-3.80710182163e-08 -1.28786742703e-07 3.80710182163e-08 
-4.74856679641e-08 -8.52501946887e-08 4.74856679641e-08 
-1.74709918035e-08 -8.82060286482e-08 5.01822249028e-08 
-1.76773281436e-08 -1.60171748848e-07 7.32229178871e-08 
1.74709918035e-08 -8.82060286482e-08 5.01822249028e-08 
1.76773281436e-08 -1.60171748848e-07 7.32229178871e-08 
0.0 0.0 0.0 
0.0 0.0 0.0 
0.0 0.0 0.0 
0.0 0.0 0.0 
0.0 0.0 0.0 
0.0 0.0 0.0 
0.0 0.0 0.0 
0.0 0.0 0.0 
-2.01557145498e-08 -1.30015517413e-07 1.62438882149e-09 
-2.01557145498e-08 -1.30015517413e-07 -1.6243888215e-09 
2.01557145498e-08 -1.30015517413e-07 -1.6243888215e-09 
2.01557145498e-08 -1.30015517413e-07 1.62438882149e-09 
4.98599540946e-09 -4.40886451525e-07 -4.98599540946e-09 
4.98599540946e-09 -4.40886451525e-07 4.98599540946e-09 
-4.98599540946e-09 -4.40886451525e-07 -4.98599540946e-09 
-4.98599540946e-09 -4.40886451525e-07 4.98599540946e-09 
-5.01822249028e-08 -8.82060286482e-08 1.74709918035e-08 
-5.01822249028e-08 -8.82060286482e-08 -1.74709918035e-08 
-7.32229178871e-08 -1.60171748848e-07 1.76773281436e-08 
-7.32229178871e-08 -1.60171748848e-07 -1.76773281436e-08 
5.01822249028e-08 -8.82060286482e-08 1.74709918035e-08 
7.32229178871e-08 -1.60171748848e-07 1.76773281436e-08 
5.01822249028e-08 -8.82060286482e-08 -1.74709918035e-08 
7.32229178871e-08 -1.60171748848e-07 -1.76773281436e-08 
-1.69940398963e-08 -8.13472642425e-08 -1.69940398963e-08 
-1.69940398963e-08 -8.13472642425e-08 1.69940398963e-08 
-3.77453088324e-08 -2.28902574457e-07 -3.77453088324e-08 
-3.77453088324e-08 -2.28902574457e-07 3.77453088324e-08 
1.69940398963e-08 -8.13472642425e-08 -1.69940398963e-08 
1.69940398963e-08 -8.13472642425e-08 1.69940398963e-08 
3.77453088324e-08 -2.28902574457e-07 -3.77453088324e-08 
3.77453088324e-08 -2.28902574457e-07 3.77453088324e-08 
</DataArray>
<DataArray type="Float64" Name="sigma" NumberOfComponents="6" format="ascii" >
-889.992583215 -7867.01456301 -889.992583215 -2816.22083288 -2816.22083288 -905.972100418  
-3006.12933073 -15309.6772999 -3006.12933073 -1941.9446225 -1941.9446225 -67.2284216265  
257.967503158 -10107.5001964 257.967503158 -2398.5169836 -2398.5169836 -1322.86287224  
-800.1008706 -13828.8315648 -800.1008706 -1961.3788784 -1961.3788784 -903.491032843  
-889.992583215 -7867.01456301 -889.992583215 2816.22083288 -2816.22083288 905.972100418  
-1526.85090341 -12001.0895846 -2390.20420069 1408.11041644 -5095.60677501 452.986050209  
-1526.85090341 -12001.0895846 -2390.20420069 -1408.11041644 -5095.60677501 -452.986050209  
-3006.12933073 -15309.6772999 -3006.12933073 1941.9446225 -1941.9446225 67.2284216265  
-800.1008706 -13828.8315648 -800.1008706 1961.3788784 -1961.3788784 903.491032843  
257.967503158 -10107.5001964 257.967503158 2398.5169836 -2398.5169836 1322.86287224  
-2773.96928202 -15105.1444441 -2812.64300397 -970.972311249 -1884.43445663 -33.6142108133  
-2773.96928202 -15105.1444441 -2812.64300397 970.972311249 -1884.43445663 33.6142108133  
-366.703331653 -14656.5260086 -707.429159149 -980.689439202 -2237.52068699 -451.745516421  
-366.703331653 -14656.5260086 -707.429159149 980.689439202 -2237.52068699 451.745516421  
256.855857649 -13104.4985788 -496.209757508 -1199.2584918 -3843.10684618 -661.431436119  
256.855857649 -13104.4985788 -496.209757508 1199.2584918 -3843.10684618 661.431436119  
-3006.12933073 -15309.6772999 -3006.12933073 -1941.9446225 1941.9446225 67.2284216265  
-3006.12933073 -15309.6772999 -3006.12933073 1941.9446225 1941.9446225 -67.2284216265  
-2773.96928202 -15105.1444441 -2812.64300397 -970.972311249 1884.43445663 33.6142108133  
-2773.96928202 -15105.1444441 -2812.64300397 970.972311249 1884.43445663 -33.6142108133  
-889.992583215 -7867.01456301 -889.992583215 2816.22083288 2816.22083288 -905.972100418  
-800.1008706 -13828.8315648 -800.1008706 1961.3788784 1961.3788784 -903.491032843  
257.967503158 -10107.5001964 257.967503158 2398.5169836 2398.5169836 -1322.86287224  
-889.992583215 -7867.01456301 -889.992583215 -2816.22083288 2816.22083288 905.972100418  
-1526.85090341 -12001.0895846 -2390.20420069 1408.11041644 5095.60677501 -452.986050209  
-1526.85090341 -12001.0895846 -2390.20420069 -1408.11041644 5095.60677501 452.986050209  
257.967503158 -10107.5001964 257.967503158 -2398.5169836 2398.5169836 1322.86287224  
-800.1008706 -13828.8315648 -800.1008706 -1961.3788784 1961.3788784 903.491032843  
-366.703331653 -14656.5260086 -707.429159149 -980.689439202 2237.52068699 451.745516421  
256.855857649 -13104.4985788 -496.209757508 -1199.2584918 3843.10684618 661.431436119  
-366.703331653 -14656.5260086 -707.429159149 980.689439202 2237.52068699 -451.745516421  
256.855857649 -13104.4985788 -496.209757508 1199.2584918 3843.10684618 -661.431436119  
-2812.64300397 -15105.1444441 -2773.96928202 -1884.43445663 970.972311249 33.6142108133  
-2812.64300397 -15105.1444441 -2773.96928202 -1884.43445663 -970.972311249 -33.6142108133  
-2812.64300397 -15105.1444441 -2773.96928202 1884.43445663 -970.972311249 33.6142108133  
-2812.64300397 -15105.1444441 -2773.96928202 1884.43445663 970.972311249 -33.6142108133  
-2602.87811406 -14817.4362309 -2602.87811406 -942.217228315 942.217228315 16.8071054066  
-2602.87811406 -14817.4362309 -2602.87811406 942.217228315 942.217228315 -16.8071054066  
-2602.87811406 -14817.4362309 -2602.87811406 -942.217228315 -942.217228315 -16.8071054066  
-2602.87811406 -14817.4362309 -2602.87811406 942.217228315 -942.217228315 16.8071054066  
-2390.20420069 -12001.0895846 -1526.85090341 5095.60677501 -1408.11041644 452.986050209  
-2390.20420069 -12001.0895846 -1526.85090341 5095.60677501 1408.11041644 -452.986050209  
-2390.20420069 -12001.0895846 -1526.85090341 -5095.60677501 1408.11041644 452.986050209  
-2390.20420069 -12001.0895846 -1526.85090341 -5095.60677501 -1408.11041644 -452.986050209  
-4070.95552515 -19782.1567747 -4070.95552515 -2547.8033875 2547.8033875 226.493025105  
-4070.95552515 -19782.1567747 -4070.95552515 -2547.8033875 -2547.8033875 -226.493025105  
-4070.95552515 -19782.1567747 -4070.95552515 2547.8033875 2547.8033875 -226.493025105  
-4070.95552515 -19782.1567747 -4070.95552515 2547.8033875 -2547.8033875 226.493025105  
-707.429159149 -14656.5260086 -366.703331653 -2237.52068699 980.689439202 451.745516421  
-707.429159149 -14656.5260086 -366.703331653 -2237.52068699 -980.689439202 -451.745516421  
-496.209757508 -13104.4985788 256.855857649 -3843.10684618 1199.2584918 661.431436119  
-496.209757508 -13104.4985788 256.855857649 -3843.10684618 -1199.2584918 -661.431436119  
-707.429159149 -14656.5260086 -366.703331653 2237.52068699 980.689439202 -451.745516421  
-496.209757508 -13104.4985788 256.855857649 3843.10684618 1199.2584918 -661.431436119  
-707.429159149 -14656.5260086 -366.703331653 2237.52068699 -980.689439202 451.745516421  
-496.209757508 -13104.4985788 256.855857649 3843.10684618 -1199.2584918 661.431436119  
-221.088608201 -15636.2661002 -221.088608201 -1118.76034349 -1118.76034349 -225.872758211  
-221.088608201 -15636.2661002 -221.088608201 -1118.76034349 1118.76034349 225.872758211  
-955.127313747 -18118.6263721 -955.127313747 -1921.55342309 -1921.55342309 -330.71571806  
-955.127313747 -18118.6263721 -955.127313747 -1921.55342309 1921.55342309 330.71571806  
-221.088608201 -15636.2661002 -221.088608201 1118.76034349 -1118.76034349 225.872758211  
-221.088608201 -15636.2661002 -221.088608201 1118.76034349 1118.76034349 -225.872758211  
-955.127313747 -18118.6263721 -955.127313747 1921.55342309 -1921.55342309 330.71571806  
-955.127313747 -18118.6263721 -955.127313747 1921.55342309 1921.55342309 -330.71571806  
</DataArray>
</PointData>
<CellData>
</CellData>
<Points>
<DataArray type="Float64" Name="Points" NumberOfComponents="3" format="ascii">
0.0 4.0 0.0 
0.0 0.0 0.0 
0.0 2.66666666667 0.0 
0.0 1.33333333333 0.0 
4.0 4.0 0.0 
2.66666666667 4.0 0.0 
1.33333333333 4.0 0.0 
4.0 0.0 0.0 
4.0 1.33333333333 0.0 
4.0 2.66666666667 0.0 
1.33333333333 0.0 0.0 
2.66666666667 0.0 0.0 
1.33333333333 1.33333333333 0.0 
2.66666666667 1.33333333333 0.0 
1.33333333333 2.66666666667 0.0 
2.66666666667 2.66666666667 0.0 
0.0 0.0 4.0 
4.0 0.0 4.0 
1.33333333333 0.0 4.0 
2.66666666667 0.0 4.0 
4.0 4.0 4.0 
4.0 1.33333333333 4.0 
4.0 2.66666666667 4.0 
0.0 4.0 4.0 
2.66666666667 4.0 4.0 
1.33333333333 4.0 4.0 
0.0 2.66666666667 4.0 
0.0 1.33333333333 4.0 
1.33333333333 1.33333333333 4.0 
1.33333333333 2.66666666667 4.0 
2.66666666667 1.33333333333 4.0 
2.66666666667 2.66666666667 4.0 
0.0 0.0 2.66666666667 
0.0 0.0 1.33333333333 
4.0 0.0 1.33333333333 
4.0 0.0 2.66666666667 
1.33333333333 0.0 2.66666666667 
2.66666666667 0.0 2.66666666667 
1.33333333333 0.0 1.33333333333 
2.66666666667 0.0 1.33333333333 
4.0 4.0 1.33333333333 
4.0 4.0 2.66666666667 
0.0 4.0 2.66666666667 
0.0 4.0 1.33333333333 
1.33333333333 4.0 2.66666666667 
1.33333333333 4.0 1.33333333333 
2.66666666667 4.0 2.66666666667 
2.66666666667 4.0 1.33333333333 
0.0 1.33333333333 2.66666666667 
0.0 1.33333333333 1.33333333333 
0.0 2.66666666667 2.66666666667 
0.0 2.66666666667 1.33333333333 
4.0 1.33333333333 2.66666666667 
4.0 2.66666666667 2.66666666667 
4.0 1.33333333333 1.33333333333 
4.0 2.66666666667 1.33333333333 
1.33333333333 1.33333333333 1.33333333333 
1.33333333333 1.33333333333 2.66666666667 
1.33333333333 2.66666666667 1.33333333333 
1.33333333333 2.66666666667 2.66666666667 
2.66666666667 1.33333333333 1.33333333333 
2.66666666667 1.33333333333 2.66666666667 
2.66666666667 2.66666666667 1.33333333333 
2.66666666667 2.66666666667 2.66666666667 
</DataArray>
</Points>
<Cells>
<DataArray type="Int64" Name="connectivity" format="ascii">
1 10 12 3 33 38 56 49 
10 11 13 12 38 39 60 56 
11 7 8 13 39 34 54 60 
3 12 14 2 49 56 58 51 
12 13 15 14 56 60 62 58 
13 8 9 15 60 54 55 62 
2 14 6 0 51 58 45 43 
14 15 5 6 58 62 47 45 
15 9 4 5 62 55 40 47 
33 38 56 49 32 36 57 48 
38 39 60 56 36 37 61 57 
39 34 54 60 37 35 52 61 
49 56 58 51 48 57 59 50 
56 60 62 58 57 61 63 59 
60 54 55 62 61 52 53 63 
51 58 45 43 50 59 44 42 
58 62 47 45 59 63 46 44 
62 55 40 47 63 53 41 46 
32 36 57 48 16 18 28 27 
36 37 61 57 18 19 30 28 
37 35 52 61 19 17 21 30 
48 57 59 50 27 28 29 26 
57 61 63 59 28 30 31 29 
61 52 53 63 30 21 22 31 
50 59 44 42 26 29 25 23 
59 63 46 44 29 31 24 25 
63 53 41 46 31 22 20 24 
</DataArray>
<DataArray type="Int64" Name="offsets" format="ascii">
8
16
24
32
40
48
56
64
72
80
88
96
104
112
120
128
136
144
152
160
168
176
184
192
200
208
216
</DataArray>
<DataArray type="UInt8" Name="types" format="ascii" RangeMin="12" RangeMax="12">
12
12
12
12
12
12
12
12
12
12
12
12
12
12
12
12
12
12
12
12
12
12
12
12
12
12
12
</DataArray>
</Cells>
</Piece>
</UnstructuredGrid>
</VTKFile>
