<?xml version="1.0"?>
<VTKFile type="UnstructuredGrid" version="0.1" byte_order="LittleEndian" compressor="vtkZLibDataCompressor">
<UnstructuredGrid>
<Piece NumberOfPoints="64" NumberOfCells="27">
<PointData>
<DataArray type="Float64" Name="displacement" NumberOfComponents="3" format="ascii" >
-8.95549699269e-10 -8.16753660058e-08 -8.95549699269e-10 
0.0 0.0 0.0 
-1.90355091082e-08 -6.43933713513e-08 -1.90355091082e-08 
-2.37428339821e-08 -4.26250973444e-08 -2.37428339821e-08 
8.95549699269e-10 -8.16753660058e-08 -8.95549699269e-10 
-8.12194410747e-10 -6.50077587066e-08 1.00778572749e-08 
8.12194410747e-10 -6.50077587066e-08 1.00778572749e-08 
0.0 0.0 0.0 
2.37428339821e-08 -4.26250973444e-08 -2.37428339821e-08 
1.90355091082e-08 -6.43933713513e-08 -1.90355091082e-08 
0.0 0.0 0.0 
0.0 0.0 0.0 
-8.73549590173e-09 -4.41030143241e-08 -2.50911124514e-08 
8.73549590173e-09 -4.41030143241e-08 -2.50911124514e-08 
-8.83866407179e-09 -8.0085874424e-08 -3.66114589436e-08 
8.83866407179e-09 -8.0085874424e-08 -3.66114589436e-08 
0.0 0.0 0.0 
0.0 0.0 0.0 
0.0 0.0 0.0 
0.0 0.0 0.0 
8.95549699269e-10 -8.16753660058e-08 8.95549699269e-10 
2.37428339821e-08 -4.26250973444e-08 2.37428339821e-08 
1.90355091082e-08 -6.43933713513e-08 1.90355091082e-08 
-8.95549699269e-10 -8.16753660058e-08 8.95549699269e-10 
-8.12194410747e-10 -6.50077587066e-08 -1.00778572749e-08 
8.12194410747e-10 -6.50077587066e-08 -1.00778572749e-08 
-1.90355091082e-08 -6.43933713513e-08 1.90355091082e-08 
-2.37428339821e-08 -4.26250973444e-08 2.37428339821e-08 
-8.73549590173e-09 -4.41030143241e-08 2.50911124514e-08 
-8.83866407179e-09 -8.0085874424e-08 3.66114589436e-08 
8.73549590173e-09 -4.41030143241e-08 2.50911124514e-08 
8.83866407179e-09 -8.0085874424e-08 3.66114589436e-08 
0.0 0.0 0.0 
0.0 0.0 0.0 
0.0 0.0 0.0 
0.0 0.0 0.0 
0.0 0.0 0.0 
0.0 0.0 0.0 
0.0 0.0 0.0 
0.0 0.0 0.0 
-1.00778572749e-08 -6.50077587066e-08 8.12194410747e-10 
-1.00778572749e-08 -6.50077587066e-08 -8.12194410747e-10 
1.00778572749e-08 -6.50077587066e-08 -8.12194410748e-10 
1.00778572749e-08 -6.50077587066e-08 8.12194410747e-10 
2.49299770473e-09 -2.20443225762e-07 -2.49299770473e-09 
2.49299770473e-09 -2.20443225762e-07 2.49299770473e-09 
-2.49299770473e-09 -2.20443225762e-07 -2.49299770473e-09 
-2.49299770473e-09 -2.20443225762e-07 2.49299770473e-09 
-2.50911124514e-08 -4.41030143241e-08 8.73549590173e-09 
-2.50911124514e-08 -4.41030143241e-08 -8.73549590173e-09 
-3.66114589436e-08 -8.0085874424e-08 8.83866407179e-09 
-3.66114589436e-08 -8.0085874424e-08 -8.83866407179e-09 
2.50911124514e-08 -4.41030143241e-08 8.73549590173e-09 
3.66114589436e-08 -8.0085874424e-08 8.83866407179e-09 
2.50911124514e-08 -4.41030143241e-08 -8.73549590173e-09 
3.66114589436e-08 -8.0085874424e-08 -8.83866407179e-09 
-8.49701994813e-09 -4.06736321213e-08 -8.49701994813e-09 
-8.49701994813e-09 -4.06736321213e-08 8.49701994813e-09 
-1.88726544162e-08 -1.14451287229e-07 -1.88726544162e-08 
-1.88726544162e-08 -1.14451287229e-07 1.88726544162e-08 
8.49701994813e-09 -4.06736321213e-08 -8.49701994813e-09 
8.49701994813e-09 -4.06736321213e-08 8.49701994813e-09 
1.88726544162e-08 -1.14451287229e-07 -1.88726544162e-08 
1.88726544162e-08 -1.14451287229e-07 1.88726544162e-08 
</DataArray>
<DataArray type="Float64" Name="sigma" NumberOfComponents="6" format="ascii" >
-444.996291608 -3933.50728151 -444.996291608 -1408.11041644 -1408.11041644 -452.986050209  
-1503.06466537 -7654.83864995 -1503.06466537 -970.972311249 -970.972311249 -33.6142108133  
128.983751579 -5053.7500982 128.983751579 -1199.2584918 -1199.2584918 -661.431436119  
-400.0504353 -6914.41578242 -400.0504353 -980.689439202 -980.689439202 -451.745516421  
-444.996291608 -3933.50728151 -444.996291608 1408.11041644 -1408.11041644 452.986050209  
-763.425451706 -6000.54479228 -1195.10210034 704.055208221 -2547.8033875 226.493025105  
-763.425451706 -6000.54479228 -1195.10210034 -704.055208221 -2547.8033875 -226.493025105  
-1503.06466537 -7654.83864995 -1503.06466537 970.972311249 -970.972311249 33.6142108133  
-400.0504353 -6914.41578242 -400.0504353 980.689439202 -980.689439202 451.745516421  
128.983751579 -5053.7500982 128.983751579 1199.2584918 -1199.2584918 661.431436119  
-1386.98464101 -7552.57222205 -1406.32150199 -485.486155624 -942.217228315 -16.8071054066  
-1386.98464101 -7552.57222205 -1406.32150199 485.486155624 -942.217228315 16.8071054066  
-183.351665826 -7328.26300428 -353.714579575 -490.344719601 -1118.76034349 -225.872758211  
-183.351665826 -7328.26300428 -353.714579575 490.344719601 -1118.76034349 225.872758211  
128.427928825 -6552.24928939 -248.104878754 -599.629245899 -1921.55342309 -330.71571806  
128.427928825 -6552.24928939 -248.104878754 599.629245899 -1921.55342309 330.71571806  
-1503.06466537 -7654.83864995 -1503.06466537 -970.972311249 970.972311249 33.6142108133  
-1503.06466537 -7654.83864995 -1503.06466537 970.972311249 970.972311249 -33.6142108132  
-1386.98464101 -7552.57222205 -1406.32150199 -485.486155624 942.217228315 16.8071054066  
-1386.98464101 -7552.57222205 -1406.32150199 485.486155624 942.217228315 -16.8071054066  
-444.996291608 -3933.50728151 -444.996291608 1408.11041644 1408.11041644 -452.986050209  
-400.0504353 -6914.41578242 -400.0504353 980.689439202 980.689439202 -451.745516421  
128.983751579 -5053.7500982 128.983751579 1199.2584918 1199.2584918 -661.431436119  
-444.996291608 -3933.50728151 -444.996291608 -1408.11041644 1408.11041644 452.986050209  
-763.425451706 -6000.54479228 -1195.10210034 704.055208221 2547.8033875 -226.493025105  
-763.425451706 -6000.54479228 -1195.10210034 -704.055208221 2547.8033875 226.493025105  
128.983751579 -5053.7500982 128.983751579 -1199.2584918 1199.2584918 661.431436119  
-400.0504353 -6914.41578242 -400.0504353 -980.689439202 980.689439202 451.745516421  
-183.351665826 -7328.26300428 -353.714579575 -490.344719601 1118.76034349 225.872758211  
128.427928825 -6552.24928939 -248.104878754 -599.629245899 1921.55342309 330.71571806  
-183.351665826 -7328.26300428 -353.714579575 490.344719601 1118.76034349 -225.872758211  
128.427928825 -6552.24928939 -248.104878754 599.629245899 1921.55342309 -330.71571806  
-1406.32150199 -7552.57222205 -1386.98464101 -942.217228315 485.486155624 16.8071054066  
-1406.32150199 -7552.57222205 -1386.98464101 -942.217228315 -485.486155624 -16.8071054066  
-1406.32150199 -7552.57222205 -1386.98464101 942.217228315 -485.486155624 16.8071054066  
-1406.32150199 -7552.57222205 -1386.98464101 942.217228315 485.486155624 -16.8071054066  
-1301.43905703 -7408.71811546 -1301.43905703 -471.108614157 471.108614157 8.40355270331  
-1301.43905703 -7408.71811546 -1301.43905703 471.108614157 471.108614157 -8.40355270331  
-1301.43905703 -7408.71811546 -1301.43905703 -471.108614157 -471.108614157 -8.40355270331  
-1301.43905703 -7408.71811546 -1301.43905703 471.108614157 -471.108614157 8.40355270331  
-1195.10210034 -6000.54479228 -763.425451706 2547.8033875 -704.055208221 226.493025105  
-1195.10210034 -6000.54479228 -763.425451706 2547.8033875 704.055208221 -226.493025105  
-1195.10210034 -6000.54479228 -763.425451706 -2547.8033875 704.055208221 226.493025105  
-1195.10210034 -6000.54479228 -763.425451706 -2547.8033875 -704.055208221 -226.493025105  
-2035.47776258 -9891.07838734 -2035.47776258 -1273.90169375 1273.90169375 113.246512552  
-2035.47776258 -9891.07838734 -2035.47776258 -1273.90169375 -1273.90169375 -113.246512552  
-2035.47776258 -9891.07838734 -2035.47776258 1273.90169375 1273.90169375 -113.246512552  
-2035.47776258 -9891.07838734 -2035.47776258 1273.90169375 -1273.90169375 113.246512552  
-353.714579575 -7328.26300428 -183.351665826 -1118.76034349 490.344719601 225.872758211  
-353.714579575 -7328.26300428 -183.351665826 -1118.76034349 -490.344719601 -225.872758211  
-248.104878754 -6552.24928939 128.427928825 -1921.55342309 599.629245899 330.71571806  
-248.104878754 -6552.24928939 128.427928825 -1921.55342309 -599.629245899 -330.71571806  
-353.714579575 -7328.26300428 -183.351665826 1118.76034349 490.344719601 -225.872758211  
-248.104878754 -6552.24928939 128.427928825 1921.55342309 599.629245899 -330.71571806  
-353.714579575 -7328.26300428 -183.351665826 1118.76034349 -490.344719601 225.872758211  
-248.104878754 -6552.24928939 128.427928825 1921.55342309 -599.629245899 330.71571806  
-110.5443041 -7818.13305012 -110.5443041 -559.380171747 -559.380171747 -112.936379105  
-110.5443041 -7818.13305012 -110.5443041 -559.380171747 559.380171747 112.936379105  
-477.563656873 -9059.31318606 -477.563656873 -960.776711545 -960.776711545 -165.35785903  
-477.563656873 -9059.31318606 -477.563656873 -960.776711545 960.776711545 165.35785903  
-110.5443041 -7818.13305012 -110.5443041 559.380171747 -559.380171747 112.936379105  
-110.5443041 -7818.13305012 -110.5443041 559.380171747 559.380171747 -112.936379105  
-477.563656873 -9059.31318606 -477.563656873 960.776711545 -960.776711545 165.35785903  
-477.563656873 -9059.31318606 -477.563656873 960.776711545 960.776711545 -165.35785903  
</DataArray>
</PointData>
<CellData>
</CellData>
<Points>
<DataArray type="Float64" Name="Points" NumberOfComponents="3" format="ascii">
0.0 4.0 0.0 
0.0 0.0 0.0 
0.0 2.66666666667 0.0 
0.0 1.33333333333 0.0 
4.0 4.0 0.0 
2.66666666667 4.0 0.0 
1.33333333333 4.0 0.0 
4.0 0.0 0.0 
4.0 1.33333333333 0.0 
4.0 2.66666666667 0.0 
1.33333333333 0.0 0.0 
2.66666666667 0.0 0.0 
1.33333333333 1.33333333333 0.0 
2.66666666667 1.33333333333 0.0 
1.33333333333 2.66666666667 0.0 
2.66666666667 2.66666666667 0.0 
0.0 0.0 4.0 
4.0 0.0 4.0 
1.33333333333 0.0 4.0 
2.66666666667 0.0 4.0 
4.0 4.0 4.0 
4.0 1.33333333333 4.0 
4.0 2.66666666667 4.0 
0.0 4.0 4.0 
2.66666666667 4.0 4.0 
1.33333333333 4.0 4.0 
0.0 2.66666666667 4.0 
0.0 1.33333333333 4.0 
1.33333333333 1.33333333333 4.0 
1.33333333333 2.66666666667 4.0 
2.66666666667 1.33333333333 4.0 
2.66666666667 2.66666666667 4.0 
0.0 0.0 2.66666666667 
0.0 0.0 1.33333333333 
4.0 0.0 1.33333333333 
4.0 0.0 2.66666666667 
1.33333333333 0.0 2.66666666667 
2.66666666667 0.0 2.66666666667 
1.33333333333 0.0 1.33333333333 
2.66666666667 0.0 1.33333333333 
4.0 4.0 1.33333333333 
4.0 4.0 2.66666666667 
0.0 4.0 2.66666666667 
0.0 4.0 1.33333333333 
1.33333333333 4.0 2.66666666667 
1.33333333333 4.0 1.33333333333 
2.66666666667 4.0 2.66666666667 
2.66666666667 4.0 1.33333333333 
0.0 1.33333333333 2.66666666667 
0.0 1.33333333333 1.33333333333 
0.0 2.66666666667 2.66666666667 
0.0 2.66666666667 1.33333333333 
4.0 1.33333333333 2.66666666667 
4.0 2.66666666667 2.66666666667 
4.0 1.33333333333 1.33333333333 
4.0 2.66666666667 1.33333333333 
1.33333333333 1.33333333333 1.33333333333 
1.33333333333 1.33333333333 2.66666666667 
1.33333333333 2.66666666667 1.33333333333 
1.33333333333 2.66666666667 2.66666666667 
2.66666666667 1.33333333333 1.33333333333 
2.66666666667 1.33333333333 2.66666666667 
2.66666666667 2.66666666667 1.33333333333 
2.66666666667 2.66666666667 2.66666666667 
</DataArray>
</Points>
<Cells>
<DataArray type="Int64" Name="connectivity" format="ascii">
1 10 12 3 33 38 56 49 
10 11 13 12 38 39 60 56 
11 7 8 13 39 34 54 60 
3 12 14 2 49 56 58 51 
12 13 15 14 56 60 62 58 
13 8 9 15 60 54 55 62 
2 14 6 0 51 58 45 43 
14 15 5 6 58 62 47 45 
15 9 4 5 62 55 40 47 
33 38 56 49 32 36 57 48 
38 39 60 56 36 37 61 57 
39 34 54 60 37 35 52 61 
49 56 58 51 48 57 59 50 
56 60 62 58 57 61 63 59 
60 54 55 62 61 52 53 63 
51 58 45 43 50 59 44 42 
58 62 47 45 59 63 46 44 
62 55 40 47 63 53 41 46 
32 36 57 48 16 18 28 27 
36 37 61 57 18 19 30 28 
37 35 52 61 19 17 21 30 
48 57 59 50 27 28 29 26 
57 61 63 59 28 30 31 29 
61 52 53 63 30 21 22 31 
50 59 44 42 26 29 25 23 
59 63 46 44 29 31 24 25 
63 53 41 46 31 22 20 24 
</DataArray>
<DataArray type="Int64" Name="offsets" format="ascii">
8
16
24
32
40
48
56
64
72
80
88
96
104
112
120
128
136
144
152
160
168
176
184
192
200
208
216
</DataArray>
<DataArray type="UInt8" Name="types" format="ascii" RangeMin="12" RangeMax="12">
12
12
12
12
12
12
12
12
12
12
12
12
12
12
12
12
12
12
12
12
12
12
12
12
12
12
12
</DataArray>
</Cells>
</Piece>
</UnstructuredGrid>
</VTKFile>
