<?xml version="1.0"?>
<VTKFile type="UnstructuredGrid" version="0.1" byte_order="LittleEndian" compressor="vtkZLibDataCompressor">
<UnstructuredGrid>
<Piece NumberOfPoints="64" NumberOfCells="27">
<PointData>
<DataArray type="Float64" Name="displacement" NumberOfComponents="3" format="ascii" >
-5.97033132846e-10 -5.44502440039e-08 -5.97033132846e-10 
0.0 0.0 0.0 
-1.26903394054e-08 -4.29289142342e-08 -1.26903394054e-08 
-1.5828555988e-08 -2.84167315629e-08 -1.5828555988e-08 
5.97033132846e-10 -5.44502440039e-08 -5.97033132846e-10 
-5.41462940498e-10 -4.33385058044e-08 6.71857151662e-09 
5.41462940498e-10 -4.33385058044e-08 6.71857151662e-09 
0.0 0.0 0.0 
1.5828555988e-08 -2.84167315629e-08 -1.5828555988e-08 
1.26903394054e-08 -4.29289142342e-08 -1.26903394054e-08 
0.0 0.0 0.0 
0.0 0.0 0.0 
-5.82366393449e-09 -2.94020095494e-08 -1.67274083009e-08 
5.82366393449e-09 -2.94020095494e-08 -1.67274083009e-08 
-5.89244271453e-09 -5.33905829494e-08 -2.44076392957e-08 
5.89244271453e-09 -5.33905829494e-08 -2.44076392957e-08 
0.0 0.0 0.0 
0.0 0.0 0.0 
0.0 0.0 0.0 
0.0 0.0 0.0 
5.97033132846e-10 -5.44502440039e-08 5.97033132846e-10 
1.5828555988e-08 -2.84167315629e-08 1.5828555988e-08 
1.26903394054e-08 -4.29289142342e-08 1.26903394054e-08 
-5.97033132846e-10 -5.44502440039e-08 5.97033132846e-10 
-5.41462940498e-10 -4.33385058044e-08 -6.71857151662e-09 
5.41462940498e-10 -4.33385058044e-08 -6.71857151662e-09 
-1.26903394054e-08 -4.29289142342e-08 1.26903394054e-08 
-1.5828555988e-08 -2.84167315629e-08 1.5828555988e-08 
-5.82366393449e-09 -2.94020095494e-08 1.67274083009e-08 
-5.89244271453e-09 -5.33905829494e-08 2.44076392957e-08 
5.82366393449e-09 -2.94020095494e-08 1.67274083009e-08 
5.89244271453e-09 -5.33905829494e-08 2.44076392957e-08 
0.0 0.0 0.0 
0.0 0.0 0.0 
0.0 0.0 0.0 
0.0 0.0 0.0 
0.0 0.0 0.0 
0.0 0.0 0.0 
0.0 0.0 0.0 
0.0 0.0 0.0 
-6.71857151662e-09 -4.33385058044e-08 5.41462940498e-10 
-6.71857151662e-09 -4.33385058044e-08 -5.41462940498e-10 
6.71857151662e-09 -4.33385058044e-08 -5.41462940498e-10 
6.71857151662e-09 -4.33385058044e-08 5.41462940498e-10 
1.66199846982e-09 -1.46962150508e-07 -1.66199846982e-09 
1.66199846982e-09 -1.46962150508e-07 1.66199846982e-09 
-1.66199846982e-09 -1.46962150508e-07 -1.66199846982e-09 
-1.66199846982e-09 -1.46962150508e-07 1.66199846982e-09 
-1.67274083009e-08 -2.94020095494e-08 5.82366393449e-09 
-1.67274083009e-08 -2.94020095494e-08 -5.82366393449e-09 
-2.44076392957e-08 -5.33905829494e-08 5.89244271453e-09 
-2.44076392957e-08 -5.33905829494e-08 -5.89244271453e-09 
1.67274083009e-08 -2.94020095494e-08 5.82366393449e-09 
2.44076392957e-08 -5.33905829494e-08 5.89244271453e-09 
1.67274083009e-08 -2.94020095494e-08 -5.82366393449e-09 
2.44076392957e-08 -5.33905829494e-08 -5.89244271453e-09 
-5.66467996542e-09 -2.71157547475e-08 -5.66467996542e-09 
-5.66467996542e-09 -2.71157547475e-08 5.66467996542e-09 
-1.25817696108e-08 -7.63008581524e-08 -1.25817696108e-08 
-1.25817696108e-08 -7.63008581524e-08 1.25817696108e-08 
5.66467996542e-09 -2.71157547475e-08 -5.66467996542e-09 
5.66467996542e-09 -2.71157547475e-08 5.66467996542e-09 
1.25817696108e-08 -7.63008581524e-08 -1.25817696108e-08 
1.25817696108e-08 -7.63008581524e-08 1.25817696108e-08 
</DataArray>
<DataArray type="Float64" Name="sigma" NumberOfComponents="6" format="ascii" >
-296.664194405 -2622.33818767 -296.664194405 -938.740277628 -938.740277628 -301.990700139  
-1002.04311024 -5103.22576663 -1002.04311024 -647.314874166 -647.314874166 -22.4094738755  
85.9891677192 -3369.16673213 85.9891677192 -799.505661199 -799.505661199 -440.954290746  
-266.7002902 -4609.61052161 -266.7002902 -653.792959468 -653.792959468 -301.163677614  
-296.664194405 -2622.33818767 -296.664194405 938.740277628 -938.740277628 301.990700139  
-508.950301137 -4000.36319485 -796.734733563 469.370138814 -1698.53559167 150.99535007  
-508.950301137 -4000.36319485 -796.734733563 -469.370138814 -1698.53559167 -150.99535007  
-1002.04311024 -5103.22576663 -1002.04311024 647.314874166 -647.314874166 22.4094738755  
-266.7002902 -4609.61052161 -266.7002902 653.792959468 -653.792959468 301.163677614  
85.9891677192 -3369.16673213 85.9891677192 799.505661199 -799.505661199 440.954290746  
-924.656427339 -5035.04814803 -937.547667991 -323.657437083 -628.144818876 -11.2047369378  
-924.656427339 -5035.04814803 -937.547667991 323.657437083 -628.144818876 11.2047369378  
-122.234443884 -4885.50866952 -235.809719716 -326.896479734 -745.840228997 -150.581838807  
-122.234443884 -4885.50866952 -235.809719716 326.896479734 -745.840228997 150.581838807  
85.6186192165 -4368.16619293 -165.403252503 -399.7528306 -1281.03561539 -220.477145373  
85.6186192165 -4368.16619293 -165.403252503 399.7528306 -1281.03561539 220.477145373  
-1002.04311024 -5103.22576663 -1002.04311024 -647.314874166 647.314874166 22.4094738755  
-1002.04311024 -5103.22576663 -1002.04311024 647.314874166 647.314874166 -22.4094738755  
-924.656427339 -5035.04814803 -937.547667991 -323.657437083 628.144818876 11.2047369378  
-924.656427339 -5035.04814803 -937.547667991 323.657437083 628.144818876 -11.2047369378  
-296.664194405 -2622.33818767 -296.664194405 938.740277628 938.740277628 -301.990700139  
-266.7002902 -4609.61052161 -266.7002902 653.792959468 653.792959468 -301.163677614  
85.9891677192 -3369.16673213 85.9891677192 799.505661199 799.505661199 -440.954290746  
-296.664194405 -2622.33818767 -296.664194405 -938.740277628 938.740277628 301.990700139  
-508.950301137 -4000.36319485 -796.734733563 469.370138814 1698.53559167 -150.99535007  
-508.950301137 -4000.36319485 -796.734733563 -469.370138814 1698.53559167 150.99535007  
85.9891677192 -3369.16673213 85.9891677192 -799.505661199 799.505661199 440.954290746  
-266.7002902 -4609.61052161 -266.7002902 -653.792959468 653.792959468 301.163677614  
-122.234443884 -4885.50866952 -235.809719716 -326.896479734 745.840228997 150.581838807  
85.6186192165 -4368.16619293 -165.403252503 -399.7528306 1281.03561539 220.477145373  
-122.234443884 -4885.50866952 -235.809719716 326.896479734 745.840228997 -150.581838807  
85.6186192165 -4368.16619293 -165.403252503 399.7528306 1281.03561539 -220.477145373  
-937.547667991 -5035.04814803 -924.656427339 -628.144818876 323.657437083 11.2047369378  
-937.547667991 -5035.04814803 -924.656427339 -628.144818876 -323.657437083 -11.2047369378  
-937.547667991 -5035.04814803 -924.656427339 628.144818876 -323.657437083 11.2047369378  
-937.547667991 -5035.04814803 -924.656427339 628.144818876 323.657437083 -11.2047369378  
-867.62603802 -4939.14541031 -867.62603802 -314.072409438 314.072409438 5.60236846888  
-867.62603802 -4939.14541031 -867.62603802 314.072409438 314.072409438 -5.60236846888  
-867.62603802 -4939.14541031 -867.62603802 -314.072409438 -314.072409438 -5.60236846888  
-867.62603802 -4939.14541031 -867.62603802 314.072409438 -314.072409438 5.60236846888  
-796.734733563 -4000.36319485 -508.950301137 1698.53559167 -469.370138814 150.99535007  
-796.734733563 -4000.36319485 -508.950301137 1698.53559167 469.370138814 -150.99535007  
-796.734733563 -4000.36319485 -508.950301137 -1698.53559167 469.370138814 150.99535007  
-796.734733563 -4000.36319485 -508.950301137 -1698.53559167 -469.370138814 -150.99535007  
-1356.98517505 -6594.05225823 -1356.98517505 -849.267795835 849.267795835 75.4976750348  
-1356.98517505 -6594.05225823 -1356.98517505 -849.267795835 -849.267795835 -75.4976750348  
-1356.98517505 -6594.05225823 -1356.98517505 849.267795835 849.267795835 -75.4976750348  
-1356.98517505 -6594.05225823 -1356.98517505 849.267795835 -849.267795835 75.4976750348  
-235.809719716 -4885.50866952 -122.234443884 -745.840228997 326.896479734 150.581838807  
-235.809719716 -4885.50866952 -122.234443884 -745.840228997 -326.896479734 -150.581838807  
-165.403252503 -4368.16619293 85.6186192165 -1281.03561539 399.7528306 220.477145373  
-165.403252503 -4368.16619293 85.6186192165 -1281.03561539 -399.7528306 -220.477145373  
-235.809719716 -4885.50866952 -122.234443884 745.840228997 326.896479734 -150.581838807  
-165.403252503 -4368.16619293 85.6186192165 1281.03561539 399.7528306 -220.477145373  
-235.809719716 -4885.50866952 -122.234443884 745.840228997 -326.896479734 150.581838807  
-165.403252503 -4368.16619293 85.6186192165 1281.03561539 -399.7528306 220.477145373  
-73.6962027336 -5212.08870008 -73.6962027336 -372.920114498 -372.920114498 -75.2909194036  
-73.6962027336 -5212.08870008 -73.6962027336 -372.920114498 372.920114498 75.2909194036  
-318.375771249 -6039.54212404 -318.375771249 -640.517807697 -640.517807697 -110.238572687  
-318.375771249 -6039.54212404 -318.375771249 -640.517807697 640.517807697 110.238572687  
-73.6962027336 -5212.08870008 -73.6962027336 372.920114498 -372.920114498 75.2909194036  
-73.6962027336 -5212.08870008 -73.6962027336 372.920114498 372.920114498 -75.2909194036  
-318.375771249 -6039.54212404 -318.375771249 640.517807697 -640.517807697 110.238572687  
-318.375771249 -6039.54212404 -318.375771249 640.517807697 640.517807697 -110.238572687  
</DataArray>
</PointData>
<CellData>
</CellData>
<Points>
<DataArray type="Float64" Name="Points" NumberOfComponents="3" format="ascii">
0.0 4.0 0.0 
0.0 0.0 0.0 
0.0 2.66666666667 0.0 
0.0 1.33333333333 0.0 
4.0 4.0 0.0 
2.66666666667 4.0 0.0 
1.33333333333 4.0 0.0 
4.0 0.0 0.0 
4.0 1.33333333333 0.0 
4.0 2.66666666667 0.0 
1.33333333333 0.0 0.0 
2.66666666667 0.0 0.0 
1.33333333333 1.33333333333 0.0 
2.66666666667 1.33333333333 0.0 
1.33333333333 2.66666666667 0.0 
2.66666666667 2.66666666667 0.0 
0.0 0.0 4.0 
4.0 0.0 4.0 
1.33333333333 0.0 4.0 
2.66666666667 0.0 4.0 
4.0 4.0 4.0 
4.0 1.33333333333 4.0 
4.0 2.66666666667 4.0 
0.0 4.0 4.0 
2.66666666667 4.0 4.0 
1.33333333333 4.0 4.0 
0.0 2.66666666667 4.0 
0.0 1.33333333333 4.0 
1.33333333333 1.33333333333 4.0 
1.33333333333 2.66666666667 4.0 
2.66666666667 1.33333333333 4.0 
2.66666666667 2.66666666667 4.0 
0.0 0.0 2.66666666667 
0.0 0.0 1.33333333333 
4.0 0.0 1.33333333333 
4.0 0.0 2.66666666667 
1.33333333333 0.0 2.66666666667 
2.66666666667 0.0 2.66666666667 
1.33333333333 0.0 1.33333333333 
2.66666666667 0.0 1.33333333333 
4.0 4.0 1.33333333333 
4.0 4.0 2.66666666667 
0.0 4.0 2.66666666667 
0.0 4.0 1.33333333333 
1.33333333333 4.0 2.66666666667 
1.33333333333 4.0 1.33333333333 
2.66666666667 4.0 2.66666666667 
2.66666666667 4.0 1.33333333333 
0.0 1.33333333333 2.66666666667 
0.0 1.33333333333 1.33333333333 
0.0 2.66666666667 2.66666666667 
0.0 2.66666666667 1.33333333333 
4.0 1.33333333333 2.66666666667 
4.0 2.66666666667 2.66666666667 
4.0 1.33333333333 1.33333333333 
4.0 2.66666666667 1.33333333333 
1.33333333333 1.33333333333 1.33333333333 
1.33333333333 1.33333333333 2.66666666667 
1.33333333333 2.66666666667 1.33333333333 
1.33333333333 2.66666666667 2.66666666667 
2.66666666667 1.33333333333 1.33333333333 
2.66666666667 1.33333333333 2.66666666667 
2.66666666667 2.66666666667 1.33333333333 
2.66666666667 2.66666666667 2.66666666667 
</DataArray>
</Points>
<Cells>
<DataArray type="Int64" Name="connectivity" format="ascii">
1 10 12 3 33 38 56 49 
10 11 13 12 38 39 60 56 
11 7 8 13 39 34 54 60 
3 12 14 2 49 56 58 51 
12 13 15 14 56 60 62 58 
13 8 9 15 60 54 55 62 
2 14 6 0 51 58 45 43 
14 15 5 6 58 62 47 45 
15 9 4 5 62 55 40 47 
33 38 56 49 32 36 57 48 
38 39 60 56 36 37 61 57 
39 34 54 60 37 35 52 61 
49 56 58 51 48 57 59 50 
56 60 62 58 57 61 63 59 
60 54 55 62 61 52 53 63 
51 58 45 43 50 59 44 42 
58 62 47 45 59 63 46 44 
62 55 40 47 63 53 41 46 
32 36 57 48 16 18 28 27 
36 37 61 57 18 19 30 28 
37 35 52 61 19 17 21 30 
48 57 59 50 27 28 29 26 
57 61 63 59 28 30 31 29 
61 52 53 63 30 21 22 31 
50 59 44 42 26 29 25 23 
59 63 46 44 29 31 24 25 
63 53 41 46 31 22 20 24 
</DataArray>
<DataArray type="Int64" Name="offsets" format="ascii">
8
16
24
32
40
48
56
64
72
80
88
96
104
112
120
128
136
144
152
160
168
176
184
192
200
208
216
</DataArray>
<DataArray type="UInt8" Name="types" format="ascii" RangeMin="12" RangeMax="12">
12
12
12
12
12
12
12
12
12
12
12
12
12
12
12
12
12
12
12
12
12
12
12
12
12
12
12
</DataArray>
</Cells>
</Piece>
</UnstructuredGrid>
</VTKFile>
