<?xml version="1.0"?>
<VTKFile type="UnstructuredGrid" version="0.1" byte_order="LittleEndian" compressor="vtkZLibDataCompressor">
<UnstructuredGrid>
<Piece NumberOfPoints="64" NumberOfCells="27">
<PointData>
<DataArray type="Float64" Name="displacement" NumberOfComponents="3" format="ascii" >
-1.49258283212e-09 -1.3612561001e-07 -1.49258283212e-09 
0.0 0.0 0.0 
-3.17258485136e-08 -1.07322285585e-07 -3.17258485136e-08 
-3.95713899701e-08 -7.10418289073e-08 -3.95713899701e-08 
1.49258283212e-09 -1.3612561001e-07 -1.49258283212e-09 
-1.35365735125e-09 -1.08346264511e-07 1.67964287915e-08 
1.35365735125e-09 -1.08346264511e-07 1.67964287915e-08 
0.0 0.0 0.0 
3.95713899701e-08 -7.10418289073e-08 -3.95713899701e-08 
3.17258485136e-08 -1.07322285585e-07 -3.17258485136e-08 
0.0 0.0 0.0 
0.0 0.0 0.0 
-1.45591598362e-08 -7.35050238735e-08 -4.18185207523e-08 
1.45591598362e-08 -7.35050238735e-08 -4.18185207523e-08 
-1.47311067863e-08 -1.33476457373e-07 -6.10190982393e-08 
1.47311067863e-08 -1.33476457373e-07 -6.10190982393e-08 
0.0 0.0 0.0 
0.0 0.0 0.0 
0.0 0.0 0.0 
0.0 0.0 0.0 
1.49258283212e-09 -1.3612561001e-07 1.49258283212e-09 
3.95713899701e-08 -7.10418289073e-08 3.95713899701e-08 
3.17258485136e-08 -1.07322285585e-07 3.17258485136e-08 
-1.49258283212e-09 -1.3612561001e-07 1.49258283212e-09 
-1.35365735125e-09 -1.08346264511e-07 -1.67964287915e-08 
1.35365735125e-09 -1.08346264511e-07 -1.67964287915e-08 
-3.17258485136e-08 -1.07322285585e-07 3.17258485136e-08 
-3.95713899701e-08 -7.10418289073e-08 3.95713899701e-08 
-1.45591598362e-08 -7.35050238735e-08 4.18185207523e-08 
-1.47311067863e-08 -1.33476457373e-07 6.10190982393e-08 
1.45591598362e-08 -7.35050238735e-08 4.18185207523e-08 
1.47311067863e-08 -1.33476457373e-07 6.10190982393e-08 
0.0 0.0 0.0 
0.0 0.0 0.0 
0.0 0.0 0.0 
0.0 0.0 0.0 
0.0 0.0 0.0 
0.0 0.0 0.0 
0.0 0.0 0.0 
0.0 0.0 0.0 
-1.67964287915e-08 -1.08346264511e-07 1.35365735125e-09 
-1.67964287915e-08 -1.08346264511e-07 -1.35365735125e-09 
1.67964287915e-08 -1.08346264511e-07 -1.35365735125e-09 
1.67964287915e-08 -1.08346264511e-07 1.35365735125e-09 
4.15499617455e-09 -3.67405376271e-07 -4.15499617455e-09 
4.15499617455e-09 -3.67405376271e-07 4.15499617455e-09 
-4.15499617455e-09 -3.67405376271e-07 -4.15499617455e-09 
-4.15499617455e-09 -3.67405376271e-07 4.15499617455e-09 
-4.18185207523e-08 -7.35050238735e-08 1.45591598362e-08 
-4.18185207523e-08 -7.35050238735e-08 -1.45591598362e-08 
-6.10190982393e-08 -1.33476457373e-07 1.47311067863e-08 
-6.10190982393e-08 -1.33476457373e-07 -1.47311067863e-08 
4.18185207523e-08 -7.35050238735e-08 1.45591598362e-08 
6.10190982393e-08 -1.33476457373e-07 1.47311067863e-08 
4.18185207523e-08 -7.35050238735e-08 -1.45591598362e-08 
6.10190982393e-08 -1.33476457373e-07 -1.47311067863e-08 
-1.41616999136e-08 -6.77893868688e-08 -1.41616999136e-08 
-1.41616999136e-08 -6.77893868688e-08 1.41616999136e-08 
-3.1454424027e-08 -1.90752145381e-07 -3.1454424027e-08 
-3.1454424027e-08 -1.90752145381e-07 3.1454424027e-08 
1.41616999136e-08 -6.77893868688e-08 -1.41616999136e-08 
1.41616999136e-08 -6.77893868688e-08 1.41616999136e-08 
3.1454424027e-08 -1.90752145381e-07 -3.1454424027e-08 
3.1454424027e-08 -1.90752145381e-07 3.1454424027e-08 
</DataArray>
<DataArray type="Float64" Name="sigma" NumberOfComponents="6" format="ascii" >
-741.660486013 -6555.84546918 -741.660486013 -2346.85069407 -2346.85069407 -754.976750348  
-2505.10777561 -12758.0644166 -2505.10777561 -1618.28718541 -1618.28718541 -56.0236846888  
214.972919298 -8422.91683033 214.972919298 -1998.764153 -1998.764153 -1102.38572687  
-666.7507255 -11524.026304 -666.7507255 -1634.48239867 -1634.48239867 -752.909194036  
-741.660486013 -6555.84546918 -741.660486013 2346.85069407 -2346.85069407 754.976750348  
-1272.37575284 -10000.9079871 -1991.83683391 1173.42534703 -4246.33897917 377.488375174  
-1272.37575284 -10000.9079871 -1991.83683391 -1173.42534703 -4246.33897917 -377.488375174  
-2505.10777561 -12758.0644166 -2505.10777561 1618.28718541 -1618.28718541 56.0236846888  
-666.7507255 -11524.026304 -666.7507255 1634.48239867 -1634.48239867 752.909194036  
214.972919298 -8422.91683033 214.972919298 1998.764153 -1998.764153 1102.38572687  
-2311.64106835 -12587.6203701 -2343.86916998 -809.143592707 -1570.36204719 -28.0118423444  
-2311.64106835 -12587.6203701 -2343.86916998 809.143592707 -1570.36204719 28.0118423444  
-305.586109711 -12213.7716738 -589.524299291 -817.241199335 -1864.60057249 -376.454597018  
-305.586109711 -12213.7716738 -589.524299291 817.241199335 -1864.60057249 376.454597018  
214.046548041 -10920.4154823 -413.508131256 -999.382076499 -3202.58903848 -551.192863433  
214.046548041 -10920.4154823 -413.508131256 999.382076499 -3202.58903848 551.192863433  
-2505.10777561 -12758.0644166 -2505.10777561 -1618.28718541 1618.28718541 56.0236846888  
-2505.10777561 -12758.0644166 -2505.10777561 1618.28718541 1618.28718541 -56.0236846888  
-2311.64106835 -12587.6203701 -2343.86916998 -809.143592707 1570.36204719 28.0118423444  
-2311.64106835 -12587.6203701 -2343.86916998 809.143592707 1570.36204719 -28.0118423444  
-741.660486013 -6555.84546918 -741.660486013 2346.85069407 2346.85069407 -754.976750348  
-666.7507255 -11524.026304 -666.7507255 1634.48239867 1634.48239867 -752.909194036  
214.972919298 -8422.91683033 214.972919298 1998.764153 1998.764153 -1102.38572687  
-741.660486013 -6555.84546918 -741.660486013 -2346.85069407 2346.85069407 754.976750348  
-1272.37575284 -10000.9079871 -1991.83683391 1173.42534703 4246.33897917 -377.488375174  
-1272.37575284 -10000.9079871 -1991.83683391 -1173.42534703 4246.33897917 377.488375174  
214.972919298 -8422.91683033 214.972919298 -1998.764153 1998.764153 1102.38572687  
-666.7507255 -11524.026304 -666.7507255 -1634.48239867 1634.48239867 752.909194036  
-305.586109711 -12213.7716738 -589.524299291 -817.241199335 1864.60057249 376.454597018  
214.046548041 -10920.4154823 -413.508131256 -999.382076499 3202.58903848 551.192863433  
-305.586109711 -12213.7716738 -589.524299291 817.241199335 1864.60057249 -376.454597018  
214.046548041 -10920.4154823 -413.508131256 999.382076499 3202.58903848 -551.192863433  
-2343.86916998 -12587.6203701 -2311.64106835 -1570.36204719 809.143592707 28.0118423444  
-2343.86916998 -12587.6203701 -2311.64106835 -1570.36204719 -809.143592707 -28.0118423444  
-2343.86916998 -12587.6203701 -2311.64106835 1570.36204719 -809.143592707 28.0118423444  
-2343.86916998 -12587.6203701 -2311.64106835 1570.36204719 809.143592707 -28.0118423444  
-2169.06509505 -12347.8635258 -2169.06509505 -785.181023595 785.181023595 14.0059211722  
-2169.06509505 -12347.8635258 -2169.06509505 785.181023595 785.181023595 -14.0059211722  
-2169.06509505 -12347.8635258 -2169.06509505 -785.181023595 -785.181023595 -14.0059211722  
-2169.06509505 -12347.8635258 -2169.06509505 785.181023595 -785.181023595 14.0059211722  
-1991.83683391 -10000.9079871 -1272.37575284 4246.33897917 -1173.42534703 377.488375174  
-1991.83683391 -10000.9079871 -1272.37575284 4246.33897917 1173.42534703 -377.488375174  
-1991.83683391 -10000.9079871 -1272.37575284 -4246.33897917 1173.42534703 377.488375174  
-1991.83683391 -10000.9079871 -1272.37575284 -4246.33897917 -1173.42534703 -377.488375174  
-3392.46293763 -16485.1306456 -3392.46293763 -2123.16948959 2123.16948959 188.744187587  
-3392.46293763 -16485.1306456 -3392.46293763 -2123.16948959 -2123.16948959 -188.744187587  
-3392.46293763 -16485.1306456 -3392.46293763 2123.16948959 2123.16948959 -188.744187587  
-3392.46293763 -16485.1306456 -3392.46293763 2123.16948959 -2123.16948959 188.744187587  
-589.524299291 -12213.7716738 -305.586109711 -1864.60057249 817.241199335 376.454597018  
-589.524299291 -12213.7716738 -305.586109711 -1864.60057249 -817.241199335 -376.454597018  
-413.508131256 -10920.4154823 214.046548041 -3202.58903848 999.382076499 551.192863433  
-413.508131256 -10920.4154823 214.046548041 -3202.58903848 -999.382076499 -551.192863433  
-589.524299291 -12213.7716738 -305.586109711 1864.60057249 817.241199335 -376.454597018  
-413.508131256 -10920.4154823 214.046548041 3202.58903848 999.382076499 -551.192863433  
-589.524299291 -12213.7716738 -305.586109711 1864.60057249 -817.241199335 376.454597018  
-413.508131256 -10920.4154823 214.046548041 3202.58903848 -999.382076499 551.192863433  
-184.240506834 -13030.2217502 -184.240506834 -932.300286246 -932.300286246 -188.227298509  
-184.240506834 -13030.2217502 -184.240506834 -932.300286246 932.300286246 188.227298509  
-795.939428122 -15098.8553101 -795.939428122 -1601.29451924 -1601.29451924 -275.596431716  
-795.939428122 -15098.8553101 -795.939428122 -1601.29451924 1601.29451924 275.596431716  
-184.240506834 -13030.2217502 -184.240506834 932.300286246 -932.300286246 188.227298509  
-184.240506834 -13030.2217502 -184.240506834 932.300286246 932.300286246 -188.227298509  
-795.939428122 -15098.8553101 -795.939428122 1601.29451924 -1601.29451924 275.596431716  
-795.939428122 -15098.8553101 -795.939428122 1601.29451924 1601.29451924 -275.596431716  
</DataArray>
</PointData>
<CellData>
</CellData>
<Points>
<DataArray type="Float64" Name="Points" NumberOfComponents="3" format="ascii">
0.0 4.0 0.0 
0.0 0.0 0.0 
0.0 2.66666666667 0.0 
0.0 1.33333333333 0.0 
4.0 4.0 0.0 
2.66666666667 4.0 0.0 
1.33333333333 4.0 0.0 
4.0 0.0 0.0 
4.0 1.33333333333 0.0 
4.0 2.66666666667 0.0 
1.33333333333 0.0 0.0 
2.66666666667 0.0 0.0 
1.33333333333 1.33333333333 0.0 
2.66666666667 1.33333333333 0.0 
1.33333333333 2.66666666667 0.0 
2.66666666667 2.66666666667 0.0 
0.0 0.0 4.0 
4.0 0.0 4.0 
1.33333333333 0.0 4.0 
2.66666666667 0.0 4.0 
4.0 4.0 4.0 
4.0 1.33333333333 4.0 
4.0 2.66666666667 4.0 
0.0 4.0 4.0 
2.66666666667 4.0 4.0 
1.33333333333 4.0 4.0 
0.0 2.66666666667 4.0 
0.0 1.33333333333 4.0 
1.33333333333 1.33333333333 4.0 
1.33333333333 2.66666666667 4.0 
2.66666666667 1.33333333333 4.0 
2.66666666667 2.66666666667 4.0 
0.0 0.0 2.66666666667 
0.0 0.0 1.33333333333 
4.0 0.0 1.33333333333 
4.0 0.0 2.66666666667 
1.33333333333 0.0 2.66666666667 
2.66666666667 0.0 2.66666666667 
1.33333333333 0.0 1.33333333333 
2.66666666667 0.0 1.33333333333 
4.0 4.0 1.33333333333 
4.0 4.0 2.66666666667 
0.0 4.0 2.66666666667 
0.0 4.0 1.33333333333 
1.33333333333 4.0 2.66666666667 
1.33333333333 4.0 1.33333333333 
2.66666666667 4.0 2.66666666667 
2.66666666667 4.0 1.33333333333 
0.0 1.33333333333 2.66666666667 
0.0 1.33333333333 1.33333333333 
0.0 2.66666666667 2.66666666667 
0.0 2.66666666667 1.33333333333 
4.0 1.33333333333 2.66666666667 
4.0 2.66666666667 2.66666666667 
4.0 1.33333333333 1.33333333333 
4.0 2.66666666667 1.33333333333 
1.33333333333 1.33333333333 1.33333333333 
1.33333333333 1.33333333333 2.66666666667 
1.33333333333 2.66666666667 1.33333333333 
1.33333333333 2.66666666667 2.66666666667 
2.66666666667 1.33333333333 1.33333333333 
2.66666666667 1.33333333333 2.66666666667 
2.66666666667 2.66666666667 1.33333333333 
2.66666666667 2.66666666667 2.66666666667 
</DataArray>
</Points>
<Cells>
<DataArray type="Int64" Name="connectivity" format="ascii">
1 10 12 3 33 38 56 49 
10 11 13 12 38 39 60 56 
11 7 8 13 39 34 54 60 
3 12 14 2 49 56 58 51 
12 13 15 14 56 60 62 58 
13 8 9 15 60 54 55 62 
2 14 6 0 51 58 45 43 
14 15 5 6 58 62 47 45 
15 9 4 5 62 55 40 47 
33 38 56 49 32 36 57 48 
38 39 60 56 36 37 61 57 
39 34 54 60 37 35 52 61 
49 56 58 51 48 57 59 50 
56 60 62 58 57 61 63 59 
60 54 55 62 61 52 53 63 
51 58 45 43 50 59 44 42 
58 62 47 45 59 63 46 44 
62 55 40 47 63 53 41 46 
32 36 57 48 16 18 28 27 
36 37 61 57 18 19 30 28 
37 35 52 61 19 17 21 30 
48 57 59 50 27 28 29 26 
57 61 63 59 28 30 31 29 
61 52 53 63 30 21 22 31 
50 59 44 42 26 29 25 23 
59 63 46 44 29 31 24 25 
63 53 41 46 31 22 20 24 
</DataArray>
<DataArray type="Int64" Name="offsets" format="ascii">
8
16
24
32
40
48
56
64
72
80
88
96
104
112
120
128
136
144
152
160
168
176
184
192
200
208
216
</DataArray>
<DataArray type="UInt8" Name="types" format="ascii" RangeMin="12" RangeMax="12">
12
12
12
12
12
12
12
12
12
12
12
12
12
12
12
12
12
12
12
12
12
12
12
12
12
12
12
</DataArray>
</Cells>
</Piece>
</UnstructuredGrid>
</VTKFile>
