<?xml version="1.0"?>
<VTKFile type="UnstructuredGrid" version="0.1" byte_order="LittleEndian" compressor="vtkZLibDataCompressor">
<UnstructuredGrid>
<Piece NumberOfPoints="64" NumberOfCells="27">
<PointData>
<DataArray type="Float64" Name="displacement" NumberOfComponents="3" format="ascii" >
-2.98516566423e-10 -2.72251220019e-08 -2.98516566423e-10 
0.0 0.0 0.0 
-6.34516970272e-09 -2.14644571171e-08 -6.34516970272e-09 
-7.91427799402e-09 -1.42083657815e-08 -7.91427799402e-09 
2.98516566423e-10 -2.72251220019e-08 -2.98516566423e-10 
-2.70731470249e-10 -2.16692529022e-08 3.35928575831e-09 
2.70731470249e-10 -2.16692529022e-08 3.35928575831e-09 
0.0 0.0 0.0 
7.91427799402e-09 -1.42083657815e-08 -7.91427799402e-09 
6.34516970272e-09 -2.14644571171e-08 -6.34516970272e-09 
0.0 0.0 0.0 
0.0 0.0 0.0 
-2.91183196724e-09 -1.47010047747e-08 -8.36370415047e-09 
2.91183196724e-09 -1.47010047747e-08 -8.36370415047e-09 
-2.94622135726e-09 -2.66952914747e-08 -1.22038196479e-08 
2.94622135726e-09 -2.66952914747e-08 -1.22038196479e-08 
0.0 0.0 0.0 
0.0 0.0 0.0 
0.0 0.0 0.0 
0.0 0.0 0.0 
2.98516566423e-10 -2.72251220019e-08 2.98516566423e-10 
7.91427799402e-09 -1.42083657815e-08 7.91427799402e-09 
6.34516970272e-09 -2.14644571171e-08 6.34516970272e-09 
-2.98516566423e-10 -2.72251220019e-08 2.98516566423e-10 
-2.70731470249e-10 -2.16692529022e-08 -3.35928575831e-09 
2.70731470249e-10 -2.16692529022e-08 -3.35928575831e-09 
-6.34516970272e-09 -2.14644571171e-08 6.34516970272e-09 
-7.91427799402e-09 -1.42083657815e-08 7.91427799402e-09 
-2.91183196724e-09 -1.47010047747e-08 8.36370415047e-09 
-2.94622135726e-09 -2.66952914747e-08 1.22038196479e-08 
2.91183196724e-09 -1.47010047747e-08 8.36370415047e-09 
2.94622135726e-09 -2.66952914747e-08 1.22038196479e-08 
0.0 0.0 0.0 
0.0 0.0 0.0 
0.0 0.0 0.0 
0.0 0.0 0.0 
0.0 0.0 0.0 
0.0 0.0 0.0 
0.0 0.0 0.0 
0.0 0.0 0.0 
-3.35928575831e-09 -2.16692529022e-08 2.70731470249e-10 
-3.35928575831e-09 -2.16692529022e-08 -2.70731470249e-10 
3.35928575831e-09 -2.16692529022e-08 -2.70731470249e-10 
3.35928575831e-09 -2.16692529022e-08 2.70731470249e-10 
8.30999234909e-10 -7.34810752541e-08 -8.30999234909e-10 
8.30999234909e-10 -7.34810752541e-08 8.30999234909e-10 
-8.30999234909e-10 -7.34810752541e-08 -8.30999234909e-10 
-8.30999234909e-10 -7.34810752541e-08 8.30999234909e-10 
-8.36370415047e-09 -1.47010047747e-08 2.91183196724e-09 
-8.36370415047e-09 -1.47010047747e-08 -2.91183196724e-09 
-1.22038196479e-08 -2.66952914747e-08 2.94622135726e-09 
-1.22038196479e-08 -2.66952914747e-08 -2.94622135726e-09 
8.36370415047e-09 -1.47010047747e-08 2.91183196724e-09 
1.22038196479e-08 -2.66952914747e-08 2.94622135726e-09 
8.36370415047e-09 -1.47010047747e-08 -2.91183196724e-09 
1.22038196479e-08 -2.66952914747e-08 -2.94622135726e-09 
-2.83233998271e-09 -1.35578773738e-08 -2.83233998271e-09 
-2.83233998271e-09 -1.35578773738e-08 2.83233998271e-09 
-6.29088480541e-09 -3.81504290762e-08 -6.29088480541e-09 
-6.29088480541e-09 -3.81504290762e-08 6.29088480541e-09 
2.83233998271e-09 -1.35578773738e-08 -2.83233998271e-09 
2.83233998271e-09 -1.35578773738e-08 2.83233998271e-09 
6.29088480541e-09 -3.81504290762e-08 -6.29088480541e-09 
6.29088480541e-09 -3.81504290762e-08 6.29088480541e-09 
</DataArray>
<DataArray type="Float64" Name="sigma" NumberOfComponents="6" format="ascii" >
-148.332097203 -1311.16909384 -148.332097203 -469.370138814 -469.370138814 -150.99535007  
-501.021555122 -2551.61288332 -501.021555122 -323.657437083 -323.657437083 -11.2047369378  
42.9945838596 -1684.58336607 42.9945838596 -399.7528306 -399.7528306 -220.477145373  
-133.3501451 -2304.80526081 -133.3501451 -326.896479734 -326.896479734 -150.581838807  
-148.332097203 -1311.16909384 -148.332097203 469.370138814 -469.370138814 150.99535007  
-254.475150569 -2000.18159743 -398.367366782 234.685069407 -849.267795835 75.4976750348  
-254.475150569 -2000.18159743 -398.367366782 -234.685069407 -849.267795835 -75.4976750348  
-501.021555122 -2551.61288332 -501.021555122 323.657437083 -323.657437083 11.2047369378  
-133.3501451 -2304.80526081 -133.3501451 326.896479734 -326.896479734 150.581838807  
42.9945838596 -1684.58336607 42.9945838596 399.7528306 -399.7528306 220.477145373  
-462.328213669 -2517.52407402 -468.773833995 -161.828718541 -314.072409438 -5.60236846888  
-462.328213669 -2517.52407402 -468.773833995 161.828718541 -314.072409438 5.60236846888  
-61.1172219421 -2442.75433476 -117.904859858 -163.448239867 -372.920114498 -75.2909194036  
-61.1172219421 -2442.75433476 -117.904859858 163.448239867 -372.920114498 75.2909194036  
42.8093096082 -2184.08309646 -82.7016262513 -199.8764153 -640.517807697 -110.238572687  
42.8093096082 -2184.08309646 -82.7016262513 199.8764153 -640.517807697 110.238572687  
-501.021555122 -2551.61288332 -501.021555122 -323.657437083 323.657437083 11.2047369378  
-501.021555122 -2551.61288332 -501.021555122 323.657437083 323.657437083 -11.2047369378  
-462.328213669 -2517.52407402 -468.773833995 -161.828718541 314.072409438 5.60236846888  
-462.328213669 -2517.52407402 -468.773833995 161.828718541 314.072409438 -5.60236846888  
-148.332097203 -1311.16909384 -148.332097203 469.370138814 469.370138814 -150.99535007  
-133.3501451 -2304.80526081 -133.3501451 326.896479734 326.896479734 -150.581838807  
42.9945838596 -1684.58336607 42.9945838596 399.7528306 399.7528306 -220.477145373  
-148.332097203 -1311.16909384 -148.332097203 -469.370138814 469.370138814 150.99535007  
-254.475150569 -2000.18159743 -398.367366782 234.685069407 849.267795835 -75.4976750348  
-254.475150569 -2000.18159743 -398.367366782 -234.685069407 849.267795835 75.4976750348  
42.9945838596 -1684.58336607 42.9945838596 -399.7528306 399.7528306 220.477145373  
-133.3501451 -2304.80526081 -133.3501451 -326.896479734 326.896479734 150.581838807  
-61.1172219421 -2442.75433476 -117.904859858 -163.448239867 372.920114498 75.2909194036  
42.8093096082 -2184.08309646 -82.7016262513 -199.8764153 640.517807697 110.238572687  
-61.1172219421 -2442.75433476 -117.904859858 163.448239867 372.920114498 -75.2909194036  
42.8093096082 -2184.08309646 -82.7016262513 199.8764153 640.517807697 -110.238572687  
-468.773833995 -2517.52407402 -462.328213669 -314.072409438 161.828718541 5.60236846888  
-468.773833995 -2517.52407402 -462.328213669 -314.072409438 -161.828718541 -5.60236846888  
-468.773833995 -2517.52407402 -462.328213669 314.072409438 -161.828718541 5.60236846888  
-468.773833995 -2517.52407402 -462.328213669 314.072409438 161.828718541 -5.60236846888  
-433.81301901 -2469.57270515 -433.81301901 -157.036204719 157.036204719 2.80118423444  
-433.81301901 -2469.57270515 -433.81301901 157.036204719 157.036204719 -2.80118423444  
-433.81301901 -2469.57270515 -433.81301901 -157.036204719 -157.036204719 -2.80118423444  
-433.81301901 -2469.57270515 -433.81301901 157.036204719 -157.036204719 2.80118423444  
-398.367366782 -2000.18159743 -254.475150569 849.267795835 -234.685069407 75.4976750348  
-398.367366782 -2000.18159743 -254.475150569 849.267795835 234.685069407 -75.4976750348  
-398.367366782 -2000.18159743 -254.475150569 -849.267795835 234.685069407 75.4976750348  
-398.367366782 -2000.18159743 -254.475150569 -849.267795835 -234.685069407 -75.4976750348  
-678.492587525 -3297.02612911 -678.492587525 -424.633897917 424.633897917 37.7488375174  
-678.492587525 -3297.02612911 -678.492587525 -424.633897917 -424.633897917 -37.7488375174  
-678.492587525 -3297.02612911 -678.492587525 424.633897917 424.633897917 -37.7488375174  
-678.492587525 -3297.02612911 -678.492587525 424.633897917 -424.633897917 37.7488375174  
-117.904859858 -2442.75433476 -61.1172219421 -372.920114498 163.448239867 75.2909194036  
-117.904859858 -2442.75433476 -61.1172219421 -372.920114498 -163.448239867 -75.2909194036  
-82.7016262513 -2184.08309646 42.8093096082 -640.517807697 199.8764153 110.238572687  
-82.7016262513 -2184.08309646 42.8093096082 -640.517807697 -199.8764153 -110.238572687  
-117.904859858 -2442.75433476 -61.1172219421 372.920114498 163.448239867 -75.2909194036  
-82.7016262513 -2184.08309646 42.8093096082 640.517807697 199.8764153 -110.238572687  
-117.904859858 -2442.75433476 -61.1172219421 372.920114498 -163.448239867 75.2909194036  
-82.7016262513 -2184.08309646 42.8093096082 640.517807697 -199.8764153 110.238572687  
-36.8481013668 -2606.04435004 -36.8481013668 -186.460057249 -186.460057249 -37.6454597018  
-36.8481013668 -2606.04435004 -36.8481013668 -186.460057249 186.460057249 37.6454597018  
-159.187885624 -3019.77106202 -159.187885624 -320.258903848 -320.258903848 -55.1192863433  
-159.187885624 -3019.77106202 -159.187885624 -320.258903848 320.258903848 55.1192863433  
-36.8481013668 -2606.04435004 -36.8481013668 186.460057249 -186.460057249 37.6454597018  
-36.8481013668 -2606.04435004 -36.8481013668 186.460057249 186.460057249 -37.6454597018  
-159.187885624 -3019.77106202 -159.187885624 320.258903848 -320.258903848 55.1192863433  
-159.187885624 -3019.77106202 -159.187885624 320.258903848 320.258903848 -55.1192863433  
</DataArray>
</PointData>
<CellData>
</CellData>
<Points>
<DataArray type="Float64" Name="Points" NumberOfComponents="3" format="ascii">
0.0 4.0 0.0 
0.0 0.0 0.0 
0.0 2.66666666667 0.0 
0.0 1.33333333333 0.0 
4.0 4.0 0.0 
2.66666666667 4.0 0.0 
1.33333333333 4.0 0.0 
4.0 0.0 0.0 
4.0 1.33333333333 0.0 
4.0 2.66666666667 0.0 
1.33333333333 0.0 0.0 
2.66666666667 0.0 0.0 
1.33333333333 1.33333333333 0.0 
2.66666666667 1.33333333333 0.0 
1.33333333333 2.66666666667 0.0 
2.66666666667 2.66666666667 0.0 
0.0 0.0 4.0 
4.0 0.0 4.0 
1.33333333333 0.0 4.0 
2.66666666667 0.0 4.0 
4.0 4.0 4.0 
4.0 1.33333333333 4.0 
4.0 2.66666666667 4.0 
0.0 4.0 4.0 
2.66666666667 4.0 4.0 
1.33333333333 4.0 4.0 
0.0 2.66666666667 4.0 
0.0 1.33333333333 4.0 
1.33333333333 1.33333333333 4.0 
1.33333333333 2.66666666667 4.0 
2.66666666667 1.33333333333 4.0 
2.66666666667 2.66666666667 4.0 
0.0 0.0 2.66666666667 
0.0 0.0 1.33333333333 
4.0 0.0 1.33333333333 
4.0 0.0 2.66666666667 
1.33333333333 0.0 2.66666666667 
2.66666666667 0.0 2.66666666667 
1.33333333333 0.0 1.33333333333 
2.66666666667 0.0 1.33333333333 
4.0 4.0 1.33333333333 
4.0 4.0 2.66666666667 
0.0 4.0 2.66666666667 
0.0 4.0 1.33333333333 
1.33333333333 4.0 2.66666666667 
1.33333333333 4.0 1.33333333333 
2.66666666667 4.0 2.66666666667 
2.66666666667 4.0 1.33333333333 
0.0 1.33333333333 2.66666666667 
0.0 1.33333333333 1.33333333333 
0.0 2.66666666667 2.66666666667 
0.0 2.66666666667 1.33333333333 
4.0 1.33333333333 2.66666666667 
4.0 2.66666666667 2.66666666667 
4.0 1.33333333333 1.33333333333 
4.0 2.66666666667 1.33333333333 
1.33333333333 1.33333333333 1.33333333333 
1.33333333333 1.33333333333 2.66666666667 
1.33333333333 2.66666666667 1.33333333333 
1.33333333333 2.66666666667 2.66666666667 
2.66666666667 1.33333333333 1.33333333333 
2.66666666667 1.33333333333 2.66666666667 
2.66666666667 2.66666666667 1.33333333333 
2.66666666667 2.66666666667 2.66666666667 
</DataArray>
</Points>
<Cells>
<DataArray type="Int64" Name="connectivity" format="ascii">
1 10 12 3 33 38 56 49 
10 11 13 12 38 39 60 56 
11 7 8 13 39 34 54 60 
3 12 14 2 49 56 58 51 
12 13 15 14 56 60 62 58 
13 8 9 15 60 54 55 62 
2 14 6 0 51 58 45 43 
14 15 5 6 58 62 47 45 
15 9 4 5 62 55 40 47 
33 38 56 49 32 36 57 48 
38 39 60 56 36 37 61 57 
39 34 54 60 37 35 52 61 
49 56 58 51 48 57 59 50 
56 60 62 58 57 61 63 59 
60 54 55 62 61 52 53 63 
51 58 45 43 50 59 44 42 
58 62 47 45 59 63 46 44 
62 55 40 47 63 53 41 46 
32 36 57 48 16 18 28 27 
36 37 61 57 18 19 30 28 
37 35 52 61 19 17 21 30 
48 57 59 50 27 28 29 26 
57 61 63 59 28 30 31 29 
61 52 53 63 30 21 22 31 
50 59 44 42 26 29 25 23 
59 63 46 44 29 31 24 25 
63 53 41 46 31 22 20 24 
</DataArray>
<DataArray type="Int64" Name="offsets" format="ascii">
8
16
24
32
40
48
56
64
72
80
88
96
104
112
120
128
136
144
152
160
168
176
184
192
200
208
216
</DataArray>
<DataArray type="UInt8" Name="types" format="ascii" RangeMin="12" RangeMax="12">
12
12
12
12
12
12
12
12
12
12
12
12
12
12
12
12
12
12
12
12
12
12
12
12
12
12
12
</DataArray>
</Cells>
</Piece>
</UnstructuredGrid>
</VTKFile>
