<?xml version="1.0"?>
<VTKFile type="UnstructuredGrid" version="0.1" byte_order="LittleEndian" compressor="vtkZLibDataCompressor">
<UnstructuredGrid>
<Piece NumberOfPoints="64" NumberOfCells="27">
<PointData>
<DataArray type="Float64" Name="displacement" NumberOfComponents="3" format="ascii" >
-1.19406626569e-09 -1.08900488008e-07 -1.19406626569e-09 
0.0 0.0 0.0 
-2.53806788109e-08 -8.58578284683e-08 -2.53806788109e-08 
-3.16571119761e-08 -5.68334631258e-08 -3.16571119761e-08 
1.19406626569e-09 -1.08900488008e-07 -1.19406626569e-09 
-1.082925881e-09 -8.66770116088e-08 1.34371430332e-08 
1.082925881e-09 -8.66770116088e-08 1.34371430332e-08 
0.0 0.0 0.0 
3.16571119761e-08 -5.68334631258e-08 -3.16571119761e-08 
2.53806788109e-08 -8.58578284683e-08 -2.53806788109e-08 
0.0 0.0 0.0 
0.0 0.0 0.0 
-1.1647327869e-08 -5.88040190988e-08 -3.34548166019e-08 
1.1647327869e-08 -5.88040190988e-08 -3.34548166019e-08 
-1.17848854291e-08 -1.06781165899e-07 -4.88152785914e-08 
1.17848854291e-08 -1.06781165899e-07 -4.88152785914e-08 
0.0 0.0 0.0 
0.0 0.0 0.0 
0.0 0.0 0.0 
0.0 0.0 0.0 
1.19406626569e-09 -1.08900488008e-07 1.19406626569e-09 
3.16571119761e-08 -5.68334631258e-08 3.16571119761e-08 
2.53806788109e-08 -8.58578284683e-08 2.53806788109e-08 
-1.19406626569e-09 -1.08900488008e-07 1.19406626569e-09 
-1.082925881e-09 -8.66770116088e-08 -1.34371430332e-08 
1.082925881e-09 -8.66770116088e-08 -1.34371430332e-08 
-2.53806788109e-08 -8.58578284683e-08 2.53806788109e-08 
-3.16571119761e-08 -5.68334631258e-08 3.16571119761e-08 
-1.1647327869e-08 -5.88040190988e-08 3.34548166019e-08 
-1.17848854291e-08 -1.06781165899e-07 4.88152785914e-08 
1.1647327869e-08 -5.88040190988e-08 3.34548166019e-08 
1.17848854291e-08 -1.06781165899e-07 4.88152785914e-08 
0.0 0.0 0.0 
0.0 0.0 0.0 
0.0 0.0 0.0 
0.0 0.0 0.0 
0.0 0.0 0.0 
0.0 0.0 0.0 
0.0 0.0 0.0 
0.0 0.0 0.0 
-1.34371430332e-08 -8.66770116088e-08 1.082925881e-09 
-1.34371430332e-08 -8.66770116088e-08 -1.082925881e-09 
1.34371430332e-08 -8.66770116088e-08 -1.082925881e-09 
1.34371430332e-08 -8.66770116088e-08 1.082925881e-09 
3.32399693964e-09 -2.93924301017e-07 -3.32399693964e-09 
3.32399693964e-09 -2.93924301017e-07 3.32399693964e-09 
-3.32399693964e-09 -2.93924301017e-07 -3.32399693964e-09 
-3.32399693964e-09 -2.93924301017e-07 3.32399693964e-09 
-3.34548166019e-08 -5.88040190988e-08 1.1647327869e-08 
-3.34548166019e-08 -5.88040190988e-08 -1.1647327869e-08 
-4.88152785914e-08 -1.06781165899e-07 1.17848854291e-08 
-4.88152785914e-08 -1.06781165899e-07 -1.17848854291e-08 
3.34548166019e-08 -5.88040190988e-08 1.1647327869e-08 
4.88152785914e-08 -1.06781165899e-07 1.17848854291e-08 
3.34548166019e-08 -5.88040190988e-08 -1.1647327869e-08 
4.88152785914e-08 -1.06781165899e-07 -1.17848854291e-08 
-1.13293599308e-08 -5.4231509495e-08 -1.13293599308e-08 
-1.13293599308e-08 -5.4231509495e-08 1.13293599308e-08 
-2.51635392216e-08 -1.52601716305e-07 -2.51635392216e-08 
-2.51635392216e-08 -1.52601716305e-07 2.51635392216e-08 
1.13293599308e-08 -5.4231509495e-08 -1.13293599308e-08 
1.13293599308e-08 -5.4231509495e-08 1.13293599308e-08 
2.51635392216e-08 -1.52601716305e-07 -2.51635392216e-08 
2.51635392216e-08 -1.52601716305e-07 2.51635392216e-08 
</DataArray>
<DataArray type="Float64" Name="sigma" NumberOfComponents="6" format="ascii" >
-593.32838881 -5244.67637534 -593.32838881 -1877.48055526 -1877.48055526 -603.981400279  
-2004.08622049 -10206.4515333 -2004.08622049 -1294.62974833 -1294.62974833 -44.818947751  
171.978335438 -6738.33346426 171.978335438 -1599.0113224 -1599.0113224 -881.908581492  
-533.4005804 -9219.22104322 -533.4005804 -1307.58591894 -1307.58591894 -602.327355228  
-593.32838881 -5244.67637534 -593.32838881 1877.48055526 -1877.48055526 603.981400279  
-1017.90060227 -8000.72638971 -1593.46946713 938.740277628 -3397.07118334 301.990700139  
-1017.90060227 -8000.72638971 -1593.46946713 -938.740277628 -3397.07118334 -301.990700139  
-2004.08622049 -10206.4515333 -2004.08622049 1294.62974833 -1294.62974833 44.818947751  
-533.4005804 -9219.22104322 -533.4005804 1307.58591894 -1307.58591894 602.327355228  
171.978335438 -6738.33346426 171.978335438 1599.0113224 -1599.0113224 881.908581492  
-1849.31285468 -10070.0962961 -1875.09533598 -647.314874166 -1256.28963775 -22.4094738755  
-1849.31285468 -10070.0962961 -1875.09533598 647.314874166 -1256.28963775 22.4094738755  
-244.468887769 -9771.01733903 -471.619439433 -653.792959468 -1491.68045799 -301.163677614  
-244.468887769 -9771.01733903 -471.619439433 653.792959468 -1491.68045799 301.163677614  
171.237238433 -8736.33238585 -330.806505005 -799.505661199 -2562.07123079 -440.954290746  
171.237238433 -8736.33238585 -330.806505005 799.505661199 -2562.07123079 440.954290746  
-2004.08622049 -10206.4515333 -2004.08622049 -1294.62974833 1294.62974833 44.818947751  
-2004.08622049 -10206.4515333 -2004.08622049 1294.62974833 1294.62974833 -44.818947751  
-1849.31285468 -10070.0962961 -1875.09533598 -647.314874166 1256.28963775 22.4094738755  
-1849.31285468 -10070.0962961 -1875.09533598 647.314874166 1256.28963775 -22.4094738755  
-593.32838881 -5244.67637534 -593.32838881 1877.48055526 1877.48055526 -603.981400279  
-533.4005804 -9219.22104322 -533.4005804 1307.58591894 1307.58591894 -602.327355228  
171.978335438 -6738.33346426 171.978335438 1599.0113224 1599.0113224 -881.908581492  
-593.32838881 -5244.67637534 -593.32838881 -1877.48055526 1877.48055526 603.981400279  
-1017.90060227 -8000.72638971 -1593.46946713 938.740277628 3397.07118334 -301.990700139  
-1017.90060227 -8000.72638971 -1593.46946713 -938.740277628 3397.07118334 301.990700139  
171.978335438 -6738.33346426 171.978335438 -1599.0113224 1599.0113224 881.908581492  
-533.4005804 -9219.22104322 -533.4005804 -1307.58591894 1307.58591894 602.327355228  
-244.468887769 -9771.01733903 -471.619439433 -653.792959468 1491.68045799 301.163677614  
171.237238433 -8736.33238585 -330.806505005 -799.505661199 2562.07123079 440.954290746  
-244.468887769 -9771.01733903 -471.619439433 653.792959468 1491.68045799 -301.163677614  
171.237238433 -8736.33238585 -330.806505005 799.505661199 2562.07123079 -440.954290746  
-1875.09533598 -10070.0962961 -1849.31285468 -1256.28963775 647.314874166 22.4094738755  
-1875.09533598 -10070.0962961 -1849.31285468 -1256.28963775 -647.314874166 -22.4094738755  
-1875.09533598 -10070.0962961 -1849.31285468 1256.28963775 -647.314874166 22.4094738755  
-1875.09533598 -10070.0962961 -1849.31285468 1256.28963775 647.314874166 -22.4094738755  
-1735.25207604 -9878.29082062 -1735.25207604 -628.144818876 628.144818876 11.2047369377  
-1735.25207604 -9878.29082062 -1735.25207604 628.144818876 628.144818876 -11.2047369378  
-1735.25207604 -9878.29082062 -1735.25207604 -628.144818876 -628.144818876 -11.2047369378  
-1735.25207604 -9878.29082062 -1735.25207604 628.144818876 -628.144818876 11.2047369378  
-1593.46946713 -8000.72638971 -1017.90060227 3397.07118334 -938.740277628 301.990700139  
-1593.46946713 -8000.72638971 -1017.90060227 3397.07118334 938.740277628 -301.990700139  
-1593.46946713 -8000.72638971 -1017.90060227 -3397.07118334 938.740277628 301.990700139  
-1593.46946713 -8000.72638971 -1017.90060227 -3397.07118334 -938.740277628 -301.990700139  
-2713.9703501 -13188.1045165 -2713.9703501 -1698.53559167 1698.53559167 150.99535007  
-2713.9703501 -13188.1045165 -2713.9703501 -1698.53559167 -1698.53559167 -150.99535007  
-2713.9703501 -13188.1045165 -2713.9703501 1698.53559167 1698.53559167 -150.99535007  
-2713.9703501 -13188.1045165 -2713.9703501 1698.53559167 -1698.53559167 150.99535007  
-471.619439433 -9771.01733903 -244.468887769 -1491.68045799 653.792959468 301.163677614  
-471.619439433 -9771.01733903 -244.468887769 -1491.68045799 -653.792959468 -301.163677614  
-330.806505005 -8736.33238585 171.237238433 -2562.07123079 799.505661199 440.954290746  
-330.806505005 -8736.33238585 171.237238433 -2562.07123079 -799.505661199 -440.954290746  
-471.619439433 -9771.01733903 -244.468887769 1491.68045799 653.792959468 -301.163677614  
-330.806505005 -8736.33238585 171.237238433 2562.07123079 799.505661199 -440.954290746  
-471.619439433 -9771.01733903 -244.468887769 1491.68045799 -653.792959468 301.163677614  
-330.806505005 -8736.33238585 171.237238433 2562.07123079 -799.505661199 440.954290746  
-147.392405467 -10424.1774002 -147.392405467 -745.840228997 -745.840228997 -150.581838807  
-147.392405467 -10424.1774002 -147.392405467 -745.840228997 745.840228997 150.581838807  
-636.751542498 -12079.0842481 -636.751542498 -1281.03561539 -1281.03561539 -220.477145373  
-636.751542498 -12079.0842481 -636.751542498 -1281.03561539 1281.03561539 220.477145373  
-147.392405467 -10424.1774002 -147.392405467 745.840228997 -745.840228997 150.581838807  
-147.392405467 -10424.1774002 -147.392405467 745.840228997 745.840228997 -150.581838807  
-636.751542498 -12079.0842481 -636.751542498 1281.03561539 -1281.03561539 220.477145373  
-636.751542498 -12079.0842481 -636.751542498 1281.03561539 1281.03561539 -220.477145373  
</DataArray>
</PointData>
<CellData>
</CellData>
<Points>
<DataArray type="Float64" Name="Points" NumberOfComponents="3" format="ascii">
0.0 4.0 0.0 
0.0 0.0 0.0 
0.0 2.66666666667 0.0 
0.0 1.33333333333 0.0 
4.0 4.0 0.0 
2.66666666667 4.0 0.0 
1.33333333333 4.0 0.0 
4.0 0.0 0.0 
4.0 1.33333333333 0.0 
4.0 2.66666666667 0.0 
1.33333333333 0.0 0.0 
2.66666666667 0.0 0.0 
1.33333333333 1.33333333333 0.0 
2.66666666667 1.33333333333 0.0 
1.33333333333 2.66666666667 0.0 
2.66666666667 2.66666666667 0.0 
0.0 0.0 4.0 
4.0 0.0 4.0 
1.33333333333 0.0 4.0 
2.66666666667 0.0 4.0 
4.0 4.0 4.0 
4.0 1.33333333333 4.0 
4.0 2.66666666667 4.0 
0.0 4.0 4.0 
2.66666666667 4.0 4.0 
1.33333333333 4.0 4.0 
0.0 2.66666666667 4.0 
0.0 1.33333333333 4.0 
1.33333333333 1.33333333333 4.0 
1.33333333333 2.66666666667 4.0 
2.66666666667 1.33333333333 4.0 
2.66666666667 2.66666666667 4.0 
0.0 0.0 2.66666666667 
0.0 0.0 1.33333333333 
4.0 0.0 1.33333333333 
4.0 0.0 2.66666666667 
1.33333333333 0.0 2.66666666667 
2.66666666667 0.0 2.66666666667 
1.33333333333 0.0 1.33333333333 
2.66666666667 0.0 1.33333333333 
4.0 4.0 1.33333333333 
4.0 4.0 2.66666666667 
0.0 4.0 2.66666666667 
0.0 4.0 1.33333333333 
1.33333333333 4.0 2.66666666667 
1.33333333333 4.0 1.33333333333 
2.66666666667 4.0 2.66666666667 
2.66666666667 4.0 1.33333333333 
0.0 1.33333333333 2.66666666667 
0.0 1.33333333333 1.33333333333 
0.0 2.66666666667 2.66666666667 
0.0 2.66666666667 1.33333333333 
4.0 1.33333333333 2.66666666667 
4.0 2.66666666667 2.66666666667 
4.0 1.33333333333 1.33333333333 
4.0 2.66666666667 1.33333333333 
1.33333333333 1.33333333333 1.33333333333 
1.33333333333 1.33333333333 2.66666666667 
1.33333333333 2.66666666667 1.33333333333 
1.33333333333 2.66666666667 2.66666666667 
2.66666666667 1.33333333333 1.33333333333 
2.66666666667 1.33333333333 2.66666666667 
2.66666666667 2.66666666667 1.33333333333 
2.66666666667 2.66666666667 2.66666666667 
</DataArray>
</Points>
<Cells>
<DataArray type="Int64" Name="connectivity" format="ascii">
1 10 12 3 33 38 56 49 
10 11 13 12 38 39 60 56 
11 7 8 13 39 34 54 60 
3 12 14 2 49 56 58 51 
12 13 15 14 56 60 62 58 
13 8 9 15 60 54 55 62 
2 14 6 0 51 58 45 43 
14 15 5 6 58 62 47 45 
15 9 4 5 62 55 40 47 
33 38 56 49 32 36 57 48 
38 39 60 56 36 37 61 57 
39 34 54 60 37 35 52 61 
49 56 58 51 48 57 59 50 
56 60 62 58 57 61 63 59 
60 54 55 62 61 52 53 63 
51 58 45 43 50 59 44 42 
58 62 47 45 59 63 46 44 
62 55 40 47 63 53 41 46 
32 36 57 48 16 18 28 27 
36 37 61 57 18 19 30 28 
37 35 52 61 19 17 21 30 
48 57 59 50 27 28 29 26 
57 61 63 59 28 30 31 29 
61 52 53 63 30 21 22 31 
50 59 44 42 26 29 25 23 
59 63 46 44 29 31 24 25 
63 53 41 46 31 22 20 24 
</DataArray>
<DataArray type="Int64" Name="offsets" format="ascii">
8
16
24
32
40
48
56
64
72
80
88
96
104
112
120
128
136
144
152
160
168
176
184
192
200
208
216
</DataArray>
<DataArray type="UInt8" Name="types" format="ascii" RangeMin="12" RangeMax="12">
12
12
12
12
12
12
12
12
12
12
12
12
12
12
12
12
12
12
12
12
12
12
12
12
12
12
12
</DataArray>
</Cells>
</Piece>
</UnstructuredGrid>
</VTKFile>
